/*--------------------------------*- C++ -*----------------------------------*\
  =========                 |
  \\      /  F ield         | OpenFOAM: The Open Source CFD Toolbox
   \\    /   O peration     | Website:  https://openfoam.org
    \\  /    A nd           | Version:  7
     \\/     M anipulation  |
\*---------------------------------------------------------------------------*/
FoamFile
{
    version     2.0;
    format      ascii;
    class       volScalarField;
    location    "0.1432";
    object      p;
}
// * * * * * * * * * * * * * * * * * * * * * * * * * * * * * * * * * * * * * //

dimensions      [0 2 -2 0 0 0 0];

internalField   nonuniform List<scalar> 
238806
(
6.57635e-07
6.5375e-07
-7.15947e-08
8.71139e-08
-6.76076e-10
5.90319e-07
5.98508e-07
6.84122e-07
7.57179e-07
1.37852e-07
1.59991e-07
2.25042e-07
6.61704e-08
6.20542e-08
-1.04537e-07
-1.19589e-07
1.11784e-07
7.12817e-08
2.11861e-06
2.13562e-06
8.46986e-08
7.48136e-08
-1.03171e-07
-7.09299e-08
-4.22307e-08
7.32884e-08
1.58613e-08
6.78285e-08
-2.34758e-08
-1.13453e-07
1.88736e-06
2.09635e-06
4.22336e-08
6.37749e-08
1.26446e-07
1.41149e-07
2.87397e-10
2.55768e-10
1.14637e-07
2.4226e-07
1.8653e-07
-3.36456e-08
2.34502e-06
2.57897e-06
1.90717e-06
1.88808e-06
-5.32816e-08
-3.79594e-08
8.56223e-08
1.07066e-07
2.60085e-07
2.70615e-07
7.33269e-08
6.86391e-08
-9.77519e-11
-9.9539e-11
1.48337e-07
4.17652e-08
1.34943e-07
2.11411e-07
1.54385e-07
3.08264e-07
1.83955e-07
2.51146e-07
2.92423e-07
1.70035e-06
1.70188e-06
8.62846e-07
7.73463e-07
4.29918e-07
3.81871e-07
5.77194e-08
3.88366e-08
1.04047e-07
8.26547e-08
1.95597e-07
1.81336e-07
1.26089e-07
1.40591e-07
6.94782e-10
7.01828e-10
5.92466e-08
8.78647e-08
1.0238e-06
1.08085e-06
3.73882e-07
3.34081e-07
2.15486e-08
-5.71802e-08
6.00014e-08
2.26824e-08
3.08983e-07
1.96349e-07
1.94932e-06
1.89726e-06
2.47073e-07
2.74646e-07
1.41542e-07
1.06101e-07
-2.01794e-08
1.67885e-06
8.72195e-07
8.22361e-07
7.365e-07
7.39279e-07
2.96909e-08
2.32701e-08
8.95585e-08
7.24535e-08
6.11687e-08
4.01331e-08
1.87877e-07
2.10123e-07
2.41225e-07
2.31266e-07
6.95999e-08
7.71272e-08
2.35717e-10
2.35866e-10
1.50301e-10
-1.34659e-07
-1.28935e-07
8.45242e-07
7.9707e-07
6.59153e-07
6.6771e-07
-1.2984e-07
-1.51179e-07
-5.76241e-09
-3.05786e-09
2.5221e-07
-1.23661e-08
4.06637e-08
-4.67128e-08
1.11923e-07
2.58866e-07
1.79134e-06
2.0105e-06
-2.49898e-07
-7.9826e-08
-1.31693e-07
-8.1834e-08
1.79949e-07
1.23965e-06
9.93897e-07
1.10985e-06
1.04948e-06
7.32581e-07
7.75163e-07
5.14125e-07
4.79058e-07
3.23853e-07
3.03393e-07
1.94851e-08
1.07528e-08
6.99844e-08
5.79762e-08
5.52514e-08
3.82871e-08
7.6953e-08
6.82763e-08
1.75985e-07
1.64506e-07
2.6968e-07
2.5907e-07
1.22247e-07
1.36698e-07
9.41774e-10
9.31402e-10
2.84891e-10
2.54419e-10
5.40282e-08
7.86848e-08
-5.29645e-08
-4.1505e-08
-2.30693e-08
9.52235e-07
8.98155e-07
2.91811e-07
2.78675e-07
-1.15808e-07
-1.41645e-07
-7.31435e-08
6.44046e-08
-1.86442e-08
3.46878e-08
9.9665e-07
9.12119e-07
2.17245e-06
2.43256e-06
2.32644e-06
2.56574e-06
9.75951e-07
8.13297e-07
1.38064e-07
-2.33991e-09
1.44747e-07
-4.77687e-08
-6.49165e-08
-3.13062e-10
-7.14275e-08
2.03116e-06
2.08267e-06
1.10592e-06
1.04586e-06
9.74164e-07
8.63309e-07
3.26603e-07
2.9134e-07
4.25999e-07
4.5841e-07
-6.17213e-08
-6.83586e-08
2.89154e-09
-4.59649e-09
8.36543e-09
2.16272e-08
1.23635e-08
2.66963e-08
7.70542e-08
9.63845e-08
1.87265e-07
1.69946e-07
2.06815e-07
2.43446e-07
2.3339e-07
2.4129e-07
1.25192e-07
1.39843e-07
2.4514e-09
2.66136e-09
4.80207e-10
4.94596e-10
1.82278e-10
1.62089e-10
2.34234e-10
2.3177e-10
3.5012e-07
4.02074e-07
3.41935e-08
1.00765e-07
-1.31835e-07
-1.4198e-07
-6.28863e-09
-5.54831e-09
7.46277e-07
7.02795e-07
3.47117e-07
3.64005e-07
2.88599e-07
2.62685e-07
1.36217e-07
1.48e-07
6.40538e-10
3.96143e-09
4.69907e-08
1.07934e-07
1.85919e-06
2.20121e-06
2.07893e-06
2.35486e-06
1.88303e-06
2.0995e-06
1.79219e-07
1.81187e-07
8.1206e-07
9.04786e-07
1.8439e-07
2.11142e-07
-1.72606e-08
-3.3534e-08
2.38491e-07
-5.87233e-08
-3.6087e-09
1.74786e-07
1.22513e-07
1.84774e-06
1.78571e-06
1.40574e-06
1.32883e-06
9.30747e-07
9.84712e-07
5.71823e-07
6.11413e-07
5.75273e-07
5.79538e-07
4.43702e-07
4.28963e-07
-1.68617e-08
-1.3837e-08
-4.65189e-08
-5.61034e-08
3.74122e-09
-3.09007e-09
-7.01384e-10
-1.0679e-08
2.15173e-08
4.78926e-09
2.03898e-08
-3.73291e-10
5.17486e-08
3.64685e-08
6.66461e-08
6.76726e-08
1.35604e-07
1.16878e-07
1.92229e-07
1.85414e-07
2.17543e-07
1.98725e-07
7.22583e-08
7.41257e-08
1.09557e-07
1.12284e-07
1.02645e-07
9.26114e-08
4.69316e-10
4.29779e-10
1.66111e-09
1.78489e-09
7.07478e-10
6.65621e-10
6.67736e-10
6.62733e-10
1.12653e-10
1.06368e-10
2.35494e-10
2.37952e-10
2.36802e-10
4.96791e-08
7.54336e-08
-1.09634e-07
-1.05957e-07
-1.38298e-10
-1.39369e-10
3.09784e-08
3.3671e-08
-3.71085e-08
-2.89566e-08
6.99074e-07
6.544e-07
7.32111e-07
7.28343e-07
3.09773e-07
3.25132e-07
2.5174e-07
2.40126e-07
-2.3234e-07
-6.99041e-08
-1.1786e-07
-6.39781e-08
4.29504e-07
5.65327e-07
1.31428e-06
1.98885e-06
1.4544e-06
1.21059e-06
1.14836e-06
2.12203e-06
1.90916e-06
2.19845e-07
2.22517e-07
4.18865e-07
5.26576e-07
5.96487e-07
8.22637e-07
-2.24478e-07
-3.9325e-08
-8.61737e-08
3.00183e-07
3.02703e-07
1.98679e-08
8.14125e-08
1.98032e-07
-2.4383e-08
2.27514e-07
5.86793e-08
7.56439e-07
6.6691e-07
1.82289e-06
1.95039e-06
1.35595e-06
1.34642e-06
1.39285e-06
1.24144e-06
1.22558e-06
1.06278e-06
1.89165e-07
1.8131e-07
2.55651e-07
2.86989e-07
6.5232e-07
6.42457e-07
7.14745e-07
6.86733e-07
4.54302e-07
4.5225e-07
4.07582e-07
3.80118e-07
2.78925e-07
2.51273e-07
-6.38937e-08
-5.72053e-08
3.89546e-08
4.57751e-08
4.06612e-09
-2.08957e-09
1.25245e-09
-8.00977e-09
-8.26809e-09
-2.17432e-08
-2.23065e-08
-3.98736e-08
4.88687e-08
3.51674e-08
7.37387e-08
7.77167e-08
1.23565e-07
1.07234e-07
2.07006e-07
2.15295e-07
1.34359e-07
1.36132e-07
1.0199e-07
1.13315e-07
9.84283e-08
1.00906e-07
1.13769e-07
4.53715e-10
4.17946e-10
2.48973e-09
2.70326e-09
1.33244e-09
1.24372e-09
1.21149e-09
1.29451e-09
4.87177e-10
4.68395e-10
3.0649e-10
3.37805e-10
1.28235e-10
1.15306e-10
1.98798e-10
1.94839e-10
4.8387e-10
4.98575e-10
3.6298e-08
1.80331e-07
3.8576e-08
-3.03399e-08
-2.43543e-08
-2.09652e-07
-1.27482e-07
-1.56867e-07
-1.30062e-07
-9.09858e-11
-9.54328e-11
2.66369e-10
4.78434e-10
-3.80922e-08
-3.52225e-08
-3.40047e-08
-3.60396e-08
-1.23493e-07
-1.4145e-07
6.94533e-07
8.44837e-07
6.34004e-07
6.19903e-07
4.2025e-07
4.27816e-07
3.24456e-07
1.63115e-07
1.31988e-07
1.96934e-07
-7.57611e-09
-1.17455e-07
-2.60661e-08
-7.81024e-08
1.19911e-06
2.11244e-06
1.74288e-06
1.72751e-06
1.64715e-06
1.63254e-06
1.59013e-06
2.29064e-06
2.534e-06
1.46726e-07
1.48224e-07
2.14023e-07
1.93491e-07
2.70578e-07
2.43857e-07
8.49411e-07
7.49308e-07
1.53321e-07
1.7491e-07
8.72536e-08
1.89616e-08
2.86913e-08
-5.54262e-08
-2.38491e-07
-8.70665e-08
-1.38214e-07
-8.32053e-08
-1.6109e-08
9.2145e-08
5.42984e-07
5.86113e-07
1.19475e-06
1.15269e-06
1.63586e-06
1.57029e-06
1.32179e-06
1.48533e-06
1.77379e-06
1.69007e-06
1.18093e-06
1.24831e-06
2.14167e-07
2.12642e-07
3.62755e-07
3.22457e-07
4.77202e-07
5.43055e-07
5.10134e-07
5.13052e-07
6.46699e-07
5.85116e-07
3.55887e-07
3.56642e-07
3.81972e-07
3.94389e-07
2.72918e-07
2.90347e-07
-4.04599e-08
-4.49422e-08
-1.21092e-07
-9.84283e-08
4.9584e-08
5.9098e-08
2.48754e-08
3.20003e-08
1.06926e-08
1.77878e-08
1.06713e-08
2.03399e-08
2.28239e-09
-5.95677e-09
-4.53057e-09
-1.69559e-08
-1.67945e-08
-3.24318e-08
6.26546e-08
7.6118e-08
4.57357e-08
3.35586e-08
9.81264e-08
1.00734e-07
8.50259e-08
9.23634e-08
1.12235e-07
9.78914e-08
1.42229e-07
1.65413e-07
1.38183e-07
1.34064e-07
2.4586e-07
2.49658e-07
1.61109e-07
1.69274e-07
1.33013e-07
1.25254e-07
1.13516e-07
1.02079e-07
8.37948e-08
7.56676e-08
9.25741e-10
9.20689e-10
4.24023e-10
4.64932e-10
1.68384e-09
1.80281e-09
8.8794e-10
8.80111e-10
6.82168e-10
7.25007e-10
6.26364e-10
6.17024e-10
3.42353e-10
3.0591e-10
1.8312e-10
2.06183e-10
1.23559e-10
1.3623e-10
1.61489e-10
1.66448e-10
2.93537e-10
2.59929e-10
3.34809e-10
2.84508e-10
2.491e-10
2.46404e-10
-6.31433e-08
-2.72022e-08
3.61555e-07
2.09694e-07
-4.88515e-08
-4.5991e-08
2.84155e-08
5.86025e-09
-2.52932e-08
-9.9282e-10
-1.1031e-07
-1.00555e-07
-7.40384e-11
-7.62075e-11
-3.26616e-11
-5.8556e-12
-3.61008e-09
-4.03823e-09
-6.99039e-09
-6.20192e-09
-1.79328e-08
-1.98883e-08
-3.51795e-08
-4.38979e-08
-2.21956e-08
-4.17834e-08
5.73277e-07
4.63003e-07
8.24301e-07
9.48745e-07
9.84541e-07
1.08256e-06
5.7576e-07
6.45329e-07
4.69937e-07
4.80091e-07
2.9998e-07
3.30362e-07
2.31643e-07
2.30641e-07
-1.04305e-07
-1.3074e-07
9.28263e-08
8.48241e-08
3.19354e-08
6.91182e-09
-2.43072e-08
2.46203e-07
1.56133e-07
1.16167e-06
1.08703e-06
1.88999e-06
1.49463e-06
1.46339e-06
1.41145e-06
2.23757e-06
2.48401e-06
1.32975e-07
1.34284e-07
2.51767e-07
2.27849e-07
1.98474e-07
2.00713e-07
6.55737e-07
7.24897e-07
9.4599e-07
1.08587e-06
-1.67376e-08
2.86677e-08
-1.39734e-07
6.57432e-09
9.66209e-08
9.34454e-08
2.05658e-07
-2.2821e-08
3.05861e-07
2.87995e-07
2.42199e-07
6.24042e-08
6.55261e-09
-9.48722e-08
9.3828e-09
6.71093e-07
6.13106e-07
1.69382e-06
1.5521e-06
1.51204e-06
1.52026e-06
1.58e-06
1.40506e-06
2.57782e-07
1.74428e-07
2.54183e-07
2.61574e-07
2.23976e-07
4.72375e-07
5.28646e-07
5.63544e-07
4.96856e-07
6.22759e-07
7.27333e-07
6.11518e-07
6.34925e-07
4.87203e-07
5.21595e-07
3.03055e-07
3.11608e-07
4.01317e-07
4.0264e-07
3.48511e-07
3.11776e-07
-2.13645e-08
-2.51387e-08
-4.57364e-08
-4.05927e-08
-8.46955e-08
-9.44473e-08
-5.87774e-08
-6.67783e-08
3.16081e-08
4.26474e-08
4.5788e-08
5.42657e-08
2.64901e-08
3.44321e-08
1.68281e-08
1.03816e-08
9.77883e-09
2.06061e-08
-2.13336e-09
-1.32993e-08
-1.13398e-08
-2.63229e-08
6.72633e-08
8.25278e-08
8.11371e-08
8.55468e-08
7.00553e-08
6.2357e-08
1.52404e-07
1.38923e-07
1.49987e-07
1.28445e-07
1.58409e-07
1.48755e-07
1.97911e-07
1.96567e-07
2.22519e-07
1.6579e-07
1.61566e-07
1.4987e-07
1.74076e-07
9.20102e-08
9.20489e-08
1.10962e-07
1.23492e-07
8.09747e-08
8.98706e-08
2.02641e-08
2.1652e-08
9.23146e-10
9.22341e-10
5.24964e-10
5.44703e-10
9.50403e-10
9.73435e-10
1.91145e-09
1.77145e-09
1.28358e-09
1.37627e-09
1.21223e-09
1.29775e-09
4.97108e-10
4.59205e-10
4.79133e-10
4.80636e-10
4.24933e-10
4.13765e-10
3.76995e-10
3.99534e-10
3.5151e-10
3.7847e-10
2.01769e-10
2.13432e-10
1.59677e-10
1.45221e-10
1.38456e-10
1.39338e-10
1.92234e-10
1.90592e-10
1.76727e-10
1.82087e-10
2.91103e-10
2.58053e-10
2.94207e-10
2.6193e-10
3.64262e-10
3.37841e-10
2.33671e-10
1.18549e-10
2.11435e-10
-1.40093e-08
-1.80018e-08
3.99158e-07
2.42893e-07
4.31761e-07
4.36602e-07
3.85961e-07
4.47575e-07
6.58676e-07
-5.4867e-08
-4.86081e-08
2.23163e-08
4.0167e-08
9.31745e-09
2.83709e-08
-6.56295e-08
-9.53835e-08
-2.75245e-08
-4.18256e-08
7.47836e-09
6.13538e-09
-3.49994e-11
-3.20405e-11
-8.3191e-11
-8.55174e-11
-1.10502e-10
-1.12527e-10
-6.27724e-11
1.83153e-12
7.72013e-09
8.34411e-09
-2.41469e-10
4.6212e-11
-4.52764e-09
-3.97694e-09
-5.46722e-09
-4.80208e-09
-2.33102e-08
-2.11134e-08
-3.91948e-08
-2.04338e-08
-4.39224e-08
-4.1499e-08
-3.56757e-08
2.97541e-07
3.52347e-07
7.06698e-07
4.98046e-07
8.13993e-07
9.67804e-07
7.32422e-07
6.4551e-07
6.80633e-07
7.1484e-07
4.62993e-07
4.91328e-07
3.05714e-07
3.00941e-07
3.75296e-07
4.21574e-07
1.81685e-07
1.87903e-07
-7.28158e-08
-8.00772e-08
1.18358e-07
1.13112e-07
4.87914e-09
6.99279e-08
2.28191e-07
1.27688e-07
1.25485e-06
1.33986e-06
1.11719e-06
1.09961e-06
1.38794e-06
1.22003e-06
2.062e-06
1.84098e-06
1.6213e-07
1.63804e-07
2.05938e-07
1.86452e-07
3.15527e-07
4.16322e-07
6.63541e-07
5.98826e-07
1.00899e-06
1.11162e-06
1.11416e-07
9.66787e-08
-8.16572e-08
-9.81816e-08
-7.85709e-08
-1.50562e-07
7.07711e-08
6.37469e-08
2.04847e-08
1.00346e-09
-8.09816e-08
-7.14024e-08
2.25003e-07
1.86508e-07
-5.1235e-08
9.61375e-10
1.39485e-06
1.67784e-06
1.28128e-06
1.22883e-06
1.46832e-06
1.29872e-06
1.50038e-06
1.58179e-06
3.12818e-07
3.05392e-07
3.0102e-07
4.12731e-07
4.64899e-07
5.75632e-07
5.08706e-07
7.40475e-07
7.32648e-07
5.57814e-07
5.8203e-07
3.16232e-07
3.16788e-07
3.40597e-07
3.63973e-07
-4.07542e-08
-3.6509e-08
-5.0036e-08
-5.54806e-08
-9.20887e-08
-8.02951e-08
-5.37628e-08
-4.64999e-08
-6.62333e-08
5.3645e-08
6.43632e-08
4.20066e-08
3.59444e-08
1.06308e-08
1.85569e-08
2.14373e-08
9.45514e-09
1.04135e-09
2.01921e-08
1.08769e-07
1.11781e-07
5.8425e-08
5.22738e-08
8.36641e-08
7.71831e-08
1.12627e-07
1.03244e-07
1.53165e-07
1.68441e-07
1.42448e-07
1.34287e-07
1.54072e-07
1.56701e-07
2.78087e-07
2.81505e-07
2.80874e-07
2.76718e-07
1.97591e-07
1.83176e-07
1.81443e-07
8.30767e-08
8.32376e-08
1.17914e-07
1.32208e-07
8.53806e-08
9.48431e-08
9.30755e-10
9.25022e-10
9.1817e-10
9.17369e-10
5.65268e-10
5.71747e-10
4.97665e-10
5.03433e-10
1.68085e-09
1.77982e-09
1.83876e-09
1.98564e-09
1.31823e-09
1.41214e-09
9.4573e-10
8.91299e-10
7.71571e-10
7.52245e-10
5.92449e-10
6.04703e-10
4.58339e-10
4.60908e-10
5.11634e-10
5.01205e-10
2.00225e-10
1.9113e-10
3.47906e-10
3.55905e-10
2.80767e-10
2.61269e-10
3.79573e-10
4.05489e-10
3.43657e-10
3.68519e-10
1.49524e-10
1.37656e-10
1.9578e-10
2.00926e-10
1.531e-10
1.66096e-10
1.20061e-10
1.30581e-10
1.96454e-10
2.00389e-10
1.85899e-10
1.80715e-10
2.8958e-10
2.57025e-10
2.26678e-10
2.22552e-10
3.02985e-10
2.97096e-10
3.3921e-10
3.46595e-10
2.55323e-10
2.53379e-10
2.21234e-10
2.17184e-10
2.66193e-07
2.25974e-07
2.05671e-07
-2.78941e-08
-4.11815e-08
1.74747e-07
6.48083e-08
1.25715e-07
3.44289e-08
3.70386e-09
3.26956e-09
3.37281e-07
3.0615e-07
-5.69677e-08
-5.61871e-08
-4.08127e-08
-3.59791e-08
2.69576e-08
1.54271e-09
-2.41137e-07
-7.27372e-08
-1.19742e-07
-9.11231e-08
7.59178e-09
8.30875e-09
4.77022e-09
5.0091e-09
-3.44166e-10
-3.62259e-10
-7.98044e-11
-8.08982e-11
-8.7516e-11
-8.49522e-11
-8.83516e-11
-9.12865e-11
-1.07407e-10
-4.80066e-11
-2.01257e-11
-2.62423e-11
3.76753e-08
4.1294e-08
6.71492e-10
8.44684e-10
6.90761e-10
1.60226e-09
2.84364e-08
3.11328e-08
-1.81279e-09
-2.25671e-09
-7.13098e-09
-8.03286e-09
-2.13076e-08
-1.93261e-08
-2.65283e-08
-2.80527e-08
-3.34312e-08
-2.89374e-08
-3.46947e-08
-1.13173e-07
7.40586e-07
6.44961e-07
1.10121e-06
9.69738e-07
5.56111e-07
5.28153e-07
4.56664e-07
5.12499e-07
3.35677e-07
3.41106e-07
2.41097e-07
2.05317e-07
2.14141e-07
2.56966e-07
-1.17241e-07
-7.68479e-08
-7.04731e-08
-6.6321e-08
-5.27108e-08
1.37516e-07
1.14938e-07
1.46671e-08
2.42201e-08
6.70028e-07
3.78788e-07
5.15712e-07
3.70648e-07
8.4789e-07
7.36185e-07
1.3155e-06
1.69866e-06
1.50377e-06
1.25042e-06
1.21347e-06
1.82772e-07
1.67102e-07
1.52959e-07
1.58381e-07
2.37147e-07
2.62602e-07
5.86499e-07
4.84614e-07
3.99202e-07
2.85083e-07
3.82529e-07
1.86788e-07
9.93398e-08
4.94157e-08
7.83948e-08
-4.94648e-09
5.3692e-08
-1.13209e-07
8.28987e-08
1.77045e-07
1.54969e-07
1.14732e-07
8.08349e-08
4.02606e-08
3.7687e-08
-6.04529e-08
-5.89552e-08
1.16554e-07
5.68739e-07
4.74655e-07
1.05912e-06
1.06725e-06
1.36678e-06
1.43856e-06
1.20698e-06
1.20207e-06
3.87493e-07
3.98213e-07
3.01601e-07
2.96172e-07
4.04125e-07
4.63313e-07
5.25094e-07
5.75864e-07
4.82847e-07
5.00087e-07
6.49471e-07
6.55194e-07
3.50059e-07
3.39468e-07
-3.07352e-08
-2.71105e-08
-5.19339e-08
-4.52768e-08
-5.09609e-08
-4.56316e-08
-1.05291e-07
-1.14591e-07
-4.0709e-08
-3.43641e-08
-7.79216e-08
-7.56425e-08
3.98726e-08
3.00853e-08
4.22455e-08
4.98873e-08
6.27587e-09
2.13219e-08
7.51144e-08
7.57421e-08
6.28198e-08
5.81727e-08
9.39052e-08
1.02208e-07
1.02077e-07
8.95598e-08
1.49224e-07
1.54058e-07
1.28225e-07
1.21053e-07
1.75456e-07
1.74816e-07
2.50385e-07
2.47667e-07
2.1786e-07
2.21988e-07
2.1954e-07
2.02839e-07
8.20379e-08
7.99918e-08
7.50758e-08
7.51514e-08
9.96454e-08
1.05515e-07
9.30555e-10
9.3728e-10
5.77643e-10
5.84692e-10
5.54186e-10
5.312e-10
1.68051e-10
8.04371e-11
8.09933e-10
8.5413e-10
2.23871e-09
2.32957e-09
2.14721e-09
2.06479e-09
1.64475e-09
1.5319e-09
1.47662e-09
1.42815e-09
1.21556e-09
1.30048e-09
8.60037e-10
9.14926e-10
4.28555e-10
4.22269e-10
6.13357e-10
6.00789e-10
6.00619e-10
5.73688e-10
5.04281e-10
4.91252e-10
4.15742e-10
4.04515e-10
4.3584e-10
2.99317e-10
3.11964e-10
3.19509e-10
3.40604e-10
2.98277e-10
2.70907e-10
2.51264e-10
3.8976e-10
4.13588e-10
4.04338e-10
3.95697e-10
2.34895e-10
2.33897e-10
2.13663e-10
2.02284e-10
1.75206e-10
1.87362e-10
1.9746e-10
2.059e-10
1.58051e-10
1.71094e-10
1.85774e-10
1.96216e-10
1.57742e-10
1.53421e-10
8.01923e-11
9.06833e-11
1.54648e-10
1.43098e-10
1.76198e-10
1.71788e-10
2.27148e-10
2.33299e-10
2.92608e-10
2.59073e-10
2.30242e-10
2.36467e-10
3.01579e-10
2.95847e-10
2.97021e-10
2.89797e-10
2.72809e-10
2.69667e-10
2.47678e-10
2.4985e-10
2.43904e-10
2.4642e-10
2.19883e-10
2.1718e-10
1.96582e-10
1.76319e-10
1.58031e-07
1.86857e-07
1.68642e-09
1.02507e-08
1.46851e-07
1.65093e-07
1.67845e-08
-2.11241e-08
1.03847e-07
1.67195e-08
1.49096e-07
6.01387e-08
6.40221e-08
9.69906e-07
1.11558e-06
-7.15256e-08
-5.9769e-08
-8.99548e-08
-3.66793e-08
-4.34653e-08
-1.9234e-08
-3.85345e-08
1.69566e-07
-1.5005e-08
1.02506e-07
-2.55322e-08
-3.66395e-08
-8.64144e-08
-8.02809e-08
-1.80712e-08
-1.27587e-08
5.86285e-09
7.1756e-09
-1.43881e-10
-1.46556e-10
-3.25513e-10
-2.89589e-10
1.90718e-11
2.53475e-11
-6.02429e-11
-6.295e-11
-9.47268e-11
-9.22705e-11
-8.46598e-11
-6.71077e-11
-2.51228e-11
-1.86197e-11
2.43113e-08
2.66052e-08
2.9236e-08
3.19684e-08
8.50976e-10
7.89164e-10
-1.6771e-09
-1.96562e-09
-3.18047e-09
-3.95381e-09
-4.45829e-09
-4.78251e-09
-2.71685e-09
-3.26456e-09
-4.37206e-09
-3.81961e-09
-9.14463e-09
-8.1246e-09
-2.00692e-08
-1.819e-08
-2.21223e-08
-2.45046e-08
-3.69437e-08
-3.92545e-08
4.52512e-07
4.19352e-07
5.05207e-07
4.15449e-07
9.88871e-07
1.12658e-06
7.98918e-07
8.91877e-07
4.36967e-07
4.10137e-07
3.75407e-07
3.8152e-07
2.93418e-07
3.275e-07
2.60334e-07
2.94611e-07
-6.41337e-08
-2.81704e-08
1.24802e-08
4.28053e-08
8.81076e-08
1.51726e-07
1.4832e-07
4.81496e-08
5.33733e-08
3.7687e-07
3.28013e-07
1.14613e-06
9.85208e-07
1.45464e-06
1.66987e-06
1.2585e-07
1.30084e-07
1.74906e-07
1.68732e-07
1.03407e-06
1.14286e-06
5.29623e-07
5.99782e-07
8.03864e-07
6.67764e-07
6.60481e-08
6.8961e-08
-1.99607e-08
1.47103e-07
9.93348e-08
2.48223e-07
1.8804e-07
7.78129e-08
3.30878e-09
1.11594e-07
1.06921e-07
-6.08336e-08
-8.76249e-08
-8.78946e-08
-9.71317e-08
1.62577e-07
1.93801e-07
9.06083e-08
6.42418e-08
8.48983e-08
6.94532e-09
-5.2123e-08
-8.19937e-09
-3.42298e-08
-2.92793e-08
1.20997e-06
8.54497e-07
9.47243e-07
7.77496e-07
1.19169e-06
1.20333e-06
1.8447e-06
2.11871e-06
1.80221e-06
9.47165e-07
9.49119e-07
1.18675e-06
1.15583e-06
4.38163e-07
4.49703e-07
2.87012e-07
3.196e-07
3.27445e-07
3.62942e-07
5.07939e-07
4.48408e-07
5.62854e-07
5.42366e-07
-2.48869e-08
-2.16854e-08
-3.26228e-08
-3.63324e-08
-3.96606e-08
-3.48642e-08
-7.75695e-08
-7.02827e-08
-9.5842e-08
-1.2567e-07
-1.03895e-07
-1.11274e-07
-1.09007e-07
-7.26137e-08
-8.78519e-08
-5.85844e-08
3.71043e-08
2.82731e-08
8.15735e-08
8.284e-08
6.39793e-08
6.89482e-08
6.41108e-08
5.71888e-08
1.1402e-07
1.24625e-07
9.27961e-08
8.17261e-08
1.66334e-07
1.72014e-07
1.76571e-07
1.75534e-07
2.22858e-07
2.20667e-07
2.43625e-07
2.25208e-07
9.09135e-08
8.86383e-08
2.73606e-09
2.62738e-09
6.24114e-10
6.08558e-10
6.11128e-10
6.03585e-10
5.35986e-10
5.53163e-10
4.25507e-10
4.64827e-10
3.39715e-11
1.39101e-10
7.17667e-10
7.04104e-10
1.2685e-09
1.20109e-09
1.897e-09
1.63147e-09
1.64555e-09
1.70135e-09
1.89175e-09
2.04327e-09
1.36625e-09
1.46168e-09
1.58578e-09
1.70444e-09
1.51557e-09
1.20461e-09
1.28917e-09
1.13796e-09
1.1633e-09
1.09142e-09
8.49819e-10
8.00015e-10
2.88883e-10
2.77945e-10
4.49065e-10
4.64173e-10
5.92641e-10
6.04593e-10
5.50881e-10
5.44919e-10
6.43405e-10
6.55053e-10
6.56718e-10
6.86426e-10
4.61928e-10
4.69698e-10
4.45199e-10
4.3349e-10
3.36619e-10
3.25202e-10
2.57136e-10
2.45476e-10
3.41645e-10
2.6073e-10
4.1832e-10
4.15095e-10
3.28879e-10
3.0064e-10
3.68929e-10
3.42457e-10
3.09279e-10
2.99736e-10
2.1247e-10
2.33214e-10
1.83666e-10
1.73578e-10
1.81032e-10
1.8359e-10
1.85235e-10
1.74398e-10
1.19554e-10
1.30117e-10
2.53548e-10
2.48793e-10
1.92442e-10
2.02734e-10
1.34563e-10
1.37666e-10
1.70037e-10
6.6429e-11
6.68505e-11
2.24691e-10
2.22056e-10
1.84159e-10
1.81819e-10
2.18622e-10
1.62731e-10
1.92544e-10
1.87431e-10
2.05354e-10
1.99519e-10
2.35865e-10
2.30278e-10
2.49099e-10
2.47658e-10
2.39205e-10
2.33694e-10
2.94414e-10
2.61627e-10
4.91965e-10
5.06346e-10
3.18204e-10
3.20712e-10
2.63296e-10
2.64625e-10
2.42185e-10
2.39407e-10
2.38943e-10
2.41585e-10
2.50425e-10
2.5248e-10
2.32892e-10
2.29805e-10
2.30798e-10
2.31846e-10
2.1576e-10
2.35575e-10
-6.91702e-08
-8.10615e-08
2.74276e-08
3.44879e-08
-3.84452e-08
3.97491e-08
3.85064e-08
2.27062e-08
-1.28829e-08
7.93491e-08
-2.33435e-08
2.78531e-07
-2.76692e-09
-1.81516e-09
1.29603e-07
1.21964e-07
8.47456e-07
8.62798e-07
2.69072e-07
3.0667e-07
-6.54957e-08
-6.46007e-08
4.13674e-08
5.11149e-08
-2.34079e-08
-7.87625e-09
5.95173e-09
6.24634e-08
1.2335e-07
2.26379e-08
-3.5397e-08
-6.72299e-08
-8.75966e-08
-2.35127e-08
-4.99896e-08
-9.99372e-08
-7.06943e-09
-6.97902e-09
5.06499e-09
5.7994e-09
9.2713e-10
-3.49359e-10
-1.34253e-10
-1.32452e-10
-2.15634e-10
-2.11817e-10
-3.3954e-10
-3.00935e-10
2.31299e-11
2.44087e-11
-3.5229e-11
-3.50874e-11
-6.96555e-11
-6.79393e-11
-9.02282e-11
-9.24901e-11
-1.03913e-10
-1.05835e-10
-7.65655e-11
-8.0417e-11
-4.78568e-11
-2.04153e-11
-9.29981e-12
-1.72286e-11
1.16593e-10
1.24171e-10
4.06145e-08
4.43922e-08
3.45674e-08
3.77263e-08
2.0078e-09
1.93221e-09
3.85228e-09
3.60248e-09
2.00753e-10
-5.8031e-09
-3.34837e-09
-5.50582e-09
-5.15933e-09
2.02175e-08
1.85675e-08
-7.46052e-09
-6.58235e-09
-3.4312e-09
-2.9675e-09
-7.89779e-09
-6.99951e-09
-1.16263e-08
-1.29896e-08
-2.52835e-08
-2.28012e-08
-2.23611e-08
-2.03087e-08
-2.87444e-08
-2.65735e-08
-1.22871e-07
-1.35653e-07
4.8511e-07
4.68929e-07
4.6675e-07
3.77429e-07
8.7682e-07
8.72804e-07
9.8738e-07
1.10259e-06
3.89511e-07
3.64944e-07
5.26475e-07
5.33771e-07
2.71904e-07
2.69583e-07
-1.27981e-07
-1.43774e-07
-6.23027e-08
1.29792e-07
1.44046e-06
1.52584e-06
1.43448e-07
1.38702e-07
1.24865e-06
5.37894e-07
4.85362e-07
7.51609e-07
5.46716e-07
6.31494e-09
3.05928e-08
1.07343e-07
2.92105e-07
2.21066e-07
1.86501e-07
4.12949e-08
-1.40378e-08
-3.56461e-08
-1.22339e-07
-1.1928e-07
-1.34443e-07
1.67827e-07
2.16717e-07
6.32303e-08
6.03376e-08
8.82942e-09
3.52311e-08
-3.30669e-08
5.6011e-07
4.50791e-07
3.93036e-07
7.30599e-07
7.44172e-07
7.92146e-07
8.41557e-07
9.78485e-07
8.48652e-07
1.51269e-06
1.51594e-06
1.87564e-06
1.83629e-06
8.37246e-07
8.35015e-07
1.02567e-06
1.05333e-06
3.93597e-07
4.19279e-07
3.40911e-07
3.51946e-07
4.16852e-07
3.71877e-07
-2.40747e-08
-1.99875e-08
-1.17596e-08
-9.63269e-09
-1.90275e-08
-2.39633e-08
-2.84836e-08
-5.1765e-08
-5.85453e-08
-7.17556e-08
-7.61526e-08
-1.26377e-07
-1.23465e-07
-9.67162e-08
-3.96019e-08
-5.00855e-08
-7.4333e-08
1.09534e-07
1.1574e-07
8.91431e-08
9.12029e-08
5.32363e-08
4.77619e-08
1.25793e-07
1.378e-07
1.57824e-07
1.57009e-07
2.06911e-07
2.14458e-07
3.13595e-11
1.26102e-10
5.96524e-09
5.6933e-09
7.70918e-10
7.8964e-10
2.15406e-09
2.23383e-09
4.15823e-10
4.06791e-10
5.71061e-10
5.75866e-10
4.53933e-10
4.87047e-10
5.25464e-10
5.48192e-10
4.97068e-10
4.11916e-11
-5.08841e-11
7.66435e-10
7.85331e-10
7.18206e-10
6.91121e-10
6.58625e-10
6.45848e-10
1.52119e-09
1.60294e-09
2.14366e-09
2.10369e-09
2.29811e-09
2.32987e-09
2.32712e-09
2.5206e-09
2.2126e-09
1.54654e-09
1.56706e-09
1.62878e-09
1.75186e-09
1.18256e-09
1.26181e-09
1.13369e-09
1.13428e-09
7.27841e-10
7.72348e-10
8.20843e-10
8.73551e-10
3.36636e-10
3.26265e-10
4.52635e-10
4.38632e-10
5.44846e-10
5.28265e-10
5.80597e-10
6.28082e-10
6.14913e-10
4.78107e-10
4.56385e-10
5.75804e-10
5.75824e-10
6.2341e-10
6.16055e-10
5.36976e-10
5.23809e-10
5.36966e-10
5.29075e-10
4.29068e-10
4.58208e-10
3.61771e-10
3.51096e-10
3.49485e-10
2.48954e-10
2.61703e-10
3.06576e-10
2.90615e-10
3.91644e-10
3.66968e-10
2.83402e-10
2.87273e-10
3.53166e-10
3.63232e-10
3.38528e-10
3.64287e-10
2.6422e-10
2.57908e-10
2.44237e-10
1.52745e-10
1.43114e-10
2.08278e-10
2.21158e-10
1.8865e-10
1.82043e-10
1.90733e-10
1.26961e-10
1.37936e-10
1.4268e-10
3.18619e-10
3.10816e-10
1.99005e-10
2.10007e-10
1.68614e-10
1.75331e-10
1.57864e-10
1.5852e-10
1.33404e-10
1.32622e-10
1.53097e-10
1.58014e-10
2.52705e-10
2.24541e-10
9.73896e-11
1.88847e-10
1.86777e-10
1.48717e-10
1.55076e-10
1.70688e-10
1.66665e-10
1.83363e-10
1.79723e-10
2.08909e-10
2.02914e-10
2.38133e-10
2.32845e-10
2.45752e-10
2.43658e-10
2.13082e-10
2.15981e-10
2.37919e-10
2.32112e-10
2.44367e-10
2.50947e-10
4.50408e-10
4.3797e-10
3.03874e-10
2.96572e-10
3.0211e-10
3.06384e-10
3.17703e-10
3.21892e-10
3.04095e-10
3.08448e-10
2.65895e-10
2.69468e-10
2.49704e-10
2.46756e-10
2.83916e-10
2.89442e-10
2.45e-10
2.47234e-10
2.24518e-10
2.20077e-10
2.28442e-10
2.297e-10
2.49311e-10
2.47427e-10
2.2042e-10
2.95676e-10
2.04333e-10
1.88314e-09
1.89365e-09
6.22714e-07
5.49183e-07
4.33272e-08
1.54208e-07
1.0345e-07
4.51416e-08
4.7356e-09
1.04538e-07
1.40593e-07
2.87167e-08
-2.45439e-08
-1.86246e-07
3.45134e-09
3.06076e-09
7.22894e-08
6.77607e-08
3.17058e-07
2.7975e-07
7.09497e-07
7.15962e-07
9.67482e-07
1.07121e-06
6.65978e-07
7.10958e-07
1.88741e-07
1.11594e-07
-8.25034e-09
8.9799e-09
4.16041e-08
6.10037e-08
-5.39516e-08
-4.57773e-08
-3.70614e-08
1.36411e-07
5.4298e-08
1.67791e-08
1.61911e-07
2.04317e-07
8.07858e-09
-2.13553e-08
-4.043e-08
4.10985e-07
3.60737e-07
3.413e-07
-2.04775e-08
-1.94447e-08
-1.85306e-08
1.1021e-08
9.09178e-09
3.84047e-10
4.06652e-10
-1.83414e-10
-1.84185e-10
-1.3627e-10
-1.40354e-10
-1.3496e-10
-1.34043e-10
-2.10126e-10
-2.06835e-10
-3.52688e-10
-3.11835e-10
-2.11108e-10
-2.20864e-10
1.83992e-11
1.72147e-11
-5.56115e-11
-5.67765e-11
-7.32495e-11
-7.08836e-11
-7.47105e-11
-7.32207e-11
-8.21156e-11
-8.50883e-11
-8.98057e-11
-8.70485e-11
-1.03687e-10
-1.08007e-10
-1.41278e-10
-1.51477e-10
-4.83895e-11
-4.49085e-11
-3.5006e-12
1.78905e-11
-3.3748e-11
-3.5579e-11
-3.98017e-11
-2.05896e-11
-1.40123e-11
-1.16777e-13
2.04411e-10
1.85481e-10
3.42003e-08
3.73715e-08
2.87483e-08
2.63951e-08
2.42518e-09
2.54679e-09
3.38053e-09
3.60588e-09
-8.3715e-10
-1.28529e-10
-9.62848e-10
-1.38017e-09
-4.68227e-09
-4.20612e-09
1.43562e-08
1.32255e-08
-1.71131e-08
-2.07679e-08
-2.2004e-09
-1.86261e-09
-5.04147e-09
-5.73779e-09
-8.63144e-09
-7.65992e-09
-1.44974e-08
-1.61263e-08
-3.19299e-08
-3.50741e-08
-1.87054e-08
-1.69019e-08
-2.68012e-08
-2.46303e-08
-2.40363e-08
-2.17264e-08
6.81224e-09
6.64734e-09
5.79013e-07
6.65302e-07
6.94907e-07
4.07343e-07
3.65467e-07
7.82683e-07
7.7196e-07
4.07856e-07
-9.87002e-08
9.09789e-09
6.6227e-09
1.04224e-06
9.59646e-07
1.21805e-06
4.80627e-07
4.38422e-07
1.68105e-07
1.31516e-07
2.68552e-07
2.3562e-07
2.53957e-07
1.26417e-07
-4.51532e-08
-1.23386e-07
-1.35487e-07
-5.25106e-08
-7.78038e-08
-1.73974e-07
1.40529e-07
1.74592e-07
-1.92872e-09
-1.015e-08
3.9016e-07
2.60883e-07
4.45181e-07
5.21797e-07
4.05419e-07
9.33652e-07
1.13767e-06
8.82894e-07
9.13809e-07
8.66296e-07
7.57785e-07
1.34976e-06
1.35546e-06
1.64565e-06
1.69371e-06
8.06731e-07
8.27452e-07
1.06811e-06
1.07207e-06
3.69154e-07
3.44245e-07
-2.8434e-08
-3.2722e-08
-8.02648e-09
-1.36962e-08
-3.20379e-08
-3.60431e-08
-6.01013e-08
-6.62014e-08
-1.1222e-07
-1.05537e-07
-2.86598e-08
1.04453e-07
9.89035e-08
1.20663e-07
1.24165e-07
7.03608e-08
7.60017e-08
1.95837e-07
1.89337e-07
-1.14648e-08
-1.27777e-08
2.03961e-08
1.99145e-08
5.8187e-09
5.66499e-09
6.51729e-10
6.37439e-10
8.20606e-10
8.19201e-10
1.939e-09
2.03641e-09
4.54029e-10
4.93651e-10
9.06224e-10
9.10721e-10
-2.25679e-10
-3.02854e-10
5.9258e-10
6.00727e-10
5.61087e-10
5.73394e-10
5.01092e-10
5.14386e-10
5.23618e-10
5.44698e-10
-6.05904e-11
-1.64659e-10
7.99481e-10
8.21948e-10
7.34566e-10
7.50627e-10
6.84495e-10
6.84829e-10
1.21259e-09
1.25575e-09
1.36646e-09
1.43016e-09
2.04479e-09
2.12152e-09
1.79438e-09
1.67333e-09
2.42773e-09
2.53836e-09
2.25866e-09
2.29105e-09
2.42278e-09
2.23584e-09
1.44219e-09
1.34698e-09
1.12794e-09
1.11076e-09
1.17965e-09
1.26028e-09
7.60054e-10
7.1594e-10
8.43198e-10
8.96674e-10
2.8478e-10
2.72404e-10
3.20452e-10
3.10045e-10
4.40588e-10
4.26398e-10
5.71741e-10
5.83707e-10
6.49187e-10
6.64383e-10
6.11817e-10
6.24712e-10
5.59572e-10
5.4715e-10
5.89421e-10
5.82e-10
6.04059e-10
6.05084e-10
6.6542e-10
6.76377e-10
7.07876e-10
7.03928e-10
4.34528e-10
4.44454e-10
4.69392e-10
4.78029e-10
4.41515e-10
4.52565e-10
4.87777e-10
4.74593e-10
3.62362e-10
3.73572e-10
3.88636e-10
3.77241e-10
2.38284e-10
2.52065e-10
2.55426e-10
2.42815e-10
3.23242e-10
2.86409e-10
4.18905e-10
4.1622e-10
3.1741e-10
2.93214e-10
2.83756e-10
2.67117e-10
2.45461e-10
2.64859e-10
3.50295e-10
3.7572e-10
2.83469e-10
2.765e-10
1.47237e-10
1.36295e-10
2.14888e-10
2.29253e-10
1.63753e-10
1.78274e-10
1.85922e-10
1.93938e-10
1.50284e-10
1.4939e-10
2.47181e-10
2.42408e-10
1.49018e-10
1.3056e-10
1.82949e-10
1.90822e-10
8.72139e-11
1.71317e-10
1.45392e-10
1.43016e-10
6.0897e-11
6.11501e-11
8.42885e-11
8.58554e-11
1.98207e-10
2.04216e-10
2.10045e-10
2.08214e-10
1.98443e-10
2.02037e-10
1.92769e-10
1.91319e-10
1.7533e-10
1.72627e-10
1.59892e-10
1.52282e-10
1.7458e-10
1.71321e-10
1.84161e-10
1.8911e-10
2.82027e-10
2.52922e-10
2.39892e-10
2.34983e-10
2.22863e-10
2.167e-10
2.40385e-10
2.35112e-10
2.93025e-10
2.6192e-10
2.91158e-10
2.61038e-10
4.95009e-10
4.98229e-10
4.43863e-10
4.55843e-10
3.04563e-10
3.12694e-10
3.10873e-10
3.13841e-10
3.36366e-10
3.29424e-10
3.13746e-10
3.14158e-10
2.61939e-10
2.64819e-10
2.56023e-10
2.59334e-10
2.44316e-10
2.46933e-10
2.40873e-10
2.36621e-10
2.43981e-10
2.41347e-10
2.5351e-10
2.17848e-10
2.23458e-10
2.26905e-10
2.25164e-10
2.24471e-10
2.30958e-10
2.2978e-10
2.13312e-10
2.15083e-10
2.14925e-10
1.96411e-09
-7.69459e-10
-1.22384e-07
-1.28268e-07
5.10625e-07
4.46682e-07
-6.4069e-08
-9.2993e-08
1.60655e-07
1.08104e-07
2.29521e-08
8.44916e-08
1.74395e-07
2.08833e-07
2.17327e-07
2.1764e-07
5.41185e-08
1.03406e-07
2.20405e-07
2.7709e-07
-4.56521e-08
-4.13157e-08
1.82257e-08
2.1247e-08
4.556e-08
6.54537e-08
1.24631e-07
1.10558e-07
3.02668e-07
3.4199e-07
6.35487e-07
6.36898e-07
6.49492e-07
6.7862e-07
9.81876e-07
1.08423e-06
6.33203e-07
5.95426e-07
1.06939e-06
1.01085e-06
2.14814e-07
1.49549e-07
2.93783e-08
5.86079e-09
-5.29437e-09
5.13752e-08
-3.07016e-08
-1.31668e-08
2.28649e-08
6.86772e-08
8.99141e-08