/*--------------------------------*- C++ -*----------------------------------*\
  =========                 |
  \\      /  F ield         | OpenFOAM: The Open Source CFD Toolbox
   \\    /   O peration     | Website:  https://openfoam.org
    \\  /    A nd           | Version:  7
     \\/     M anipulation  |
\*---------------------------------------------------------------------------*/
FoamFile
{
    version     2.0;
    format      ascii;
    class       volScalarField;
    location    "2400";
    object      T;
}
// * * * * * * * * * * * * * * * * * * * * * * * * * * * * * * * * * * * * * //

dimensions      [0 0 0 1 0 0 0];

internalField   nonuniform List<scalar> 
238806
(
1.69319e-10
1.74456e-10
3.08045e-10
3.21953e-10
2.95876e-10
2.05055e-10
2.03432e-10
1.69364e-10
1.64796e-10
3.28262e-10
3.37457e-10
2.74229e-10
4.99999e-10
5.11608e-10
6.05123e-10
5.55702e-10
3.46081e-10
3.58925e-10
1.4197e-10
1.41439e-10
4.49221e-10
4.75697e-10
5.58608e-10
5.70539e-10
6.02081e-10
3.26649e-10
3.43133e-10
3.48298e-10
3.85416e-10
3.78917e-10
1.4258e-10
1.4121e-10
4.55189e-10
4.20923e-10
3.45703e-10
3.23538e-10
1.2829e-06
1.29226e-06
3.12645e-10
3.00447e-10
3.17984e-10
3.49866e-10
1.66195e-10
1.65004e-10
1.42937e-10
1.436e-10
6.2574e-10
5.75324e-10
3.88739e-10
3.58728e-10
2.40011e-10
2.32781e-10
4.68758e-10
4.80344e-10
1.11394e-07
1.09041e-07
3.18206e-10
3.03936e-10
3.03628e-10
2.78219e-10
2.89297e-10
2.97709e-10
2.88619e-10
2.93203e-10
2.78666e-10
1.44097e-10
1.4461e-10
1.60735e-10
1.64562e-10
1.92452e-10
1.99678e-10
4.57169e-10
4.9368e-10
3.75354e-10
4.05386e-10
2.77425e-10
2.89901e-10
3.48623e-10
3.26438e-10
1.58543e-08
1.57391e-08
2.75701e-10
2.57337e-10
1.86722e-10
1.84045e-10
2.44487e-10
2.55554e-10
3.97836e-10
3.82005e-10
3.66573e-10
3.80574e-10
2.63506e-10
2.75889e-10
1.71248e-10
1.72882e-10
2.81925e-10
2.68581e-10
2.94201e-10
3.1683e-10
3.43552e-10
1.45447e-10
1.58675e-10
1.61286e-10
1.65375e-10
1.63793e-10
7.34447e-10
7.75121e-10
4.12612e-10
4.43501e-10
4.38233e-10
4.73781e-10
2.91605e-10
2.76417e-10
2.45678e-10
2.53066e-10
4.91278e-10
4.6009e-10
1.58844e-06
1.58395e-06
1.59567e-06
4.21845e-10
4.52395e-10
1.93416e-10
1.96873e-10
1.99427e-10
1.97954e-10
6.51265e-10
6.58014e-10
4.29933e-10
4.21407e-10
2.88278e-10
3.83729e-10
3.99001e-10
3.83792e-10
2.65133e-10
2.51363e-10
1.71793e-10
1.69874e-10
5.04115e-10
5.31112e-10
5.17872e-10
5.01971e-10
2.72862e-10
1.53333e-10
1.56106e-10
1.5237e-10
1.54445e-10
1.65414e-10
1.62501e-10
1.81e-10
1.8603e-10
2.12191e-10
2.18506e-10
7.15309e-10
7.60912e-10
4.79698e-10
5.12096e-10
4.7759e-10
5.14873e-10
4.75683e-10
5.02658e-10
2.93433e-10
3.06219e-10
2.28826e-10
2.33512e-10
3.48371e-10
3.26036e-10
1.15012e-08
1.15862e-08
1.26962e-06
1.27886e-06
2.89277e-10
2.71321e-10
1.76057e-09
1.78783e-09
1.78445e-09
1.88464e-10
1.91534e-10
2.64043e-10
2.71319e-10
7.16272e-10
7.16818e-10
4.1903e-10
3.77761e-10
3.60127e-10
3.64683e-10
1.85856e-10
1.87366e-10
1.69381e-10
1.67787e-10
1.66593e-10
1.65355e-10
1.88523e-10
1.92114e-10
3.05529e-10
2.87919e-10
2.83958e-10
4.22202e-10
4.18564e-10
3.04092e-10
3.12155e-10
1.43908e-10
1.42817e-10
1.5411e-10
1.57224e-10
1.57166e-10
1.60448e-10
2.23688e-10
2.35537e-10
1.92856e-10
1.87513e-10
1.18057e-09
1.16054e-09
8.41572e-10
8.91787e-10
6.47692e-10
6.02902e-10
5.3086e-10
4.91654e-10
4.23679e-10
3.93289e-10
2.89728e-10
3.06315e-10
2.62422e-10
2.50007e-10
2.45821e-10
2.41271e-10
3.45589e-10
3.23363e-10
4.94628e-09
4.66786e-09
5.0015e-08
4.71168e-08
4.14839e-08
3.91093e-08
3.28394e-07
3.48016e-07
1.58447e-10
1.5144e-10
1.91714e-10
1.78508e-10
5.18781e-10
5.50393e-10
2.51681e-09
2.62126e-09
1.98939e-10
2.02566e-10
2.47622e-10
2.41324e-10
2.68449e-10
2.81328e-10
3.54206e-10
3.71643e-10
5.42786e-10
5.32858e-10
3.31476e-10
3.14659e-10
1.72251e-10
1.70319e-10
1.70762e-10
1.68997e-10
1.6964e-10
1.68004e-10
3.31336e-10
3.29636e-10
1.94482e-10
1.90026e-10
3.02078e-10
3.10016e-10
4.74861e-10
5.11174e-10
2.61876e-10
4.34028e-10
2.29141e-10
2.38352e-10
2.21008e-10
1.44601e-10
1.45912e-10
1.4748e-10
1.49145e-10
1.5765e-10
1.55319e-10
1.79362e-10
1.7288e-10
1.73613e-10
1.73508e-10
1.88035e-10
1.90704e-10
8.81699e-10
9.11799e-10
7.23053e-10
6.97709e-10
8.76011e-10
9.26039e-10
7.49343e-10
8.00109e-10
5.55354e-10
5.99067e-10
5.12102e-10
5.53596e-10
4.99466e-10
5.37359e-10
5.13037e-10
5.31373e-10
3.4263e-10
3.66234e-10
2.75483e-10
2.83205e-10
2.62972e-10
2.7528e-10
4.85405e-10
4.82421e-10
3.72277e-10
3.69456e-10
3.74599e-10
3.9834e-10
1.04554e-08
9.88517e-09
6.58665e-09
6.2176e-09
1.29415e-08
1.36983e-08
1.66733e-08
1.67935e-08
5.38939e-08
5.3265e-08
3.49813e-07
3.29971e-07
1.60527e-06
3.03359e-10
2.86349e-10
4.5504e-10
4.26135e-10
7.74862e-08
8.24301e-08
8.85511e-10
8.39767e-10
1.81961e-09
1.86763e-09
2.0712e-10
2.14031e-10
1.94679e-10
1.93283e-10
2.59006e-10
2.52192e-10
2.94625e-10
3.123e-10
4.53593e-10
4.49969e-10
4.63184e-10
4.7669e-10
2.10723e-10
2.01181e-10
1.73358e-10
1.7145e-10
1.75942e-10
1.77962e-10
1.77955e-10
1.67545e-10
1.69105e-10
2.98205e-10
2.96496e-10
2.27973e-10
2.18343e-10
1.98666e-10
1.93694e-10
3.47635e-10
3.70596e-10
5.65422e-10
2.17414e-10
2.29703e-10
3.52695e-10
3.26226e-10
2.88421e-10
2.73272e-10
2.7476e-10
2.87223e-10
1.69848e-10
1.7519e-10
1.46409e-10
1.45164e-10
1.47919e-10
1.4875e-10
1.48916e-10
1.51324e-10
1.5136e-10
1.54139e-10
2.94594e-10
2.78947e-10
2.49686e-10
2.3724e-10
1.68836e-10
1.70835e-10
1.64684e-10
1.66834e-10
1.86901e-10
1.86765e-10
1.94838e-10
2.00526e-10
2.2678e-10
2.37436e-10
1.10845e-09
1.12975e-09
6.60981e-10
6.26533e-10
9.12476e-10
9.62328e-10
7.78411e-10
8.29023e-10
6.70317e-10
7.20811e-10
5.98946e-10
6.47838e-10
5.22842e-10
5.61268e-10
4.99104e-10
4.82506e-10
3.60797e-10
3.85051e-10
2.67407e-10
2.59863e-10
3.19884e-10
3.00362e-10
3.98198e-10
3.72546e-10
3.97843e-10
3.9502e-10
3.52596e-10
8.02705e-09
7.61142e-09
4.97175e-09
4.69327e-09
7.29359e-09
7.72483e-09
8.91043e-09
8.40063e-09
4.69953e-08
4.99077e-08
3.66604e-08
3.48469e-08
4.76095e-08
5.03522e-08
8.01416e-07
7.95012e-07
7.66943e-08
7.24998e-08
2.3763e-10
2.28441e-10
2.41105e-10
4.80307e-10
4.93496e-10
4.7921e-10
4.95862e-10
4.87422e-10
4.76709e-10
1.04827e-07
1.02616e-07
1.55244e-09
1.62006e-09
1.71915e-09
1.76107e-09
1.81682e-09
1.81879e-09
9.04721e-10
8.97998e-10
1.97925e-10
1.93915e-10
2.04996e-10
2.09866e-10
2.27673e-10
2.25751e-10
2.56326e-10
3.35482e-10
3.32663e-10
3.52704e-10
4.85376e-10
5.21678e-10
5.18856e-10
5.08818e-10
1.78049e-10
1.79081e-10
1.76287e-10
1.73348e-10
1.75138e-10
1.72611e-10
1.74061e-10
1.67269e-10
1.65952e-10
3.70342e-10
3.68609e-10
3.0233e-10
3.18272e-10
2.70372e-10
2.83673e-10
1.94171e-10
1.99196e-10
3.18447e-10
2.98127e-10
3.97152e-10
3.83298e-10
3.96753e-10
5.51227e-10
4.54782e-10
4.51542e-10
4.65282e-10
4.79146e-10
4.00489e-10
2.88442e-10
1.88778e-10
1.81716e-10
1.56984e-10
1.60648e-10
1.46658e-10
1.4826e-10
1.49998e-10
1.47553e-10
1.43636e-10
1.4497e-10
1.51641e-10
1.49776e-10
2.63379e-10
2.77762e-10
2.12595e-10
2.23834e-10
1.88334e-10
1.80901e-10
1.79773e-10
1.79783e-10
1.70027e-10
1.74396e-10
2.03565e-10
2.03979e-10
1.98699e-10
1.95925e-10
2.28851e-10
2.22327e-10
1.28573e-09
1.25557e-09
9.23265e-10
8.68516e-10
5.66093e-10
5.32795e-10
7.38896e-10
6.9847e-10
8.27922e-10
7.82122e-10
7.30226e-10
6.8474e-10
8.09066e-10
8.59495e-10
6.95539e-10
7.46304e-10
6.22267e-10
6.7154e-10
4.87664e-10
4.55747e-10
5.47734e-10
5.866e-10
4.13114e-10
4.04179e-10
4.51841e-10
4.31109e-10
3.80439e-10
4.05282e-10
3.32251e-10
3.09944e-10
3.32041e-10
3.40339e-10
2.38327e-10
2.37152e-10
2.86618e-10
2.99635e-10
3.14257e-10
3.3237e-10
3.69559e-10
3.95145e-10
4.2382e-10
4.5111e-10
1.84026e-08
1.94773e-08
9.86663e-09
1.04343e-08
6.61052e-09
6.23855e-09
1.21962e-08
1.22863e-08
1.37998e-08
1.30345e-08
2.08031e-08
2.20178e-08
4.06383e-08
4.10167e-08
3.43702e-08
3.4128e-08
5.09386e-08
4.81495e-08
8.70939e-07
9.0888e-07
1.33319e-06
1.34314e-06
1.61672e-07
1.60561e-07
3.78773e-07
3.76791e-07
3.08889e-10
3.34758e-10
1.6758e-10
1.70519e-10
5.39636e-10
5.54564e-10
3.0935e-10
3.31404e-10
3.34741e-10
3.08871e-10
4.64791e-10
4.36046e-10
8.56052e-08
8.38651e-08
7.06534e-07
7.12004e-07
3.1561e-09
3.18278e-09
2.28979e-09
2.38171e-09
2.24191e-09
2.17245e-09
1.8473e-09
1.88183e-09
1.85795e-09
1.77858e-09
2.13972e-10
2.21334e-10
1.95455e-10
1.90054e-10
1.84725e-10
1.81102e-10
2.07773e-10
2.01672e-10
2.19124e-10
2.17256e-10
2.6857e-10
2.56305e-10
2.9916e-10
3.16455e-10
7.8101e-10
7.77098e-10
4.06904e-10
4.25553e-10
4.21597e-10
4.69979e-10
5.24202e-10
2.35037e-10
2.37411e-10
1.82462e-10
1.85274e-10
1.74806e-10
1.76978e-10
1.7523e-10
1.76823e-10
1.68204e-10
1.6676e-10
3.92213e-10
3.90453e-10
2.8057e-10
2.9411e-10
3.14067e-10
3.12368e-10
2.04237e-10
1.99238e-10
1.89463e-10
1.85289e-10
3.82471e-10
4.06399e-10
4.02005e-10
3.22866e-10
3.29098e-10
3.41538e-10
2.58139e-10
2.45832e-10
2.39279e-10
2.41769e-10
2.5361e-10
3.41071e-10
3.68896e-10
5.12901e-10
2.57191e-10
1.7519e-10
1.80977e-10
1.4747e-10
1.49076e-10
1.46522e-10
1.45854e-10
1.46722e-10
1.48786e-10
2.51685e-10
2.51741e-10
2.65288e-10
2.4889e-10
2.6357e-10
1.94892e-10
1.87359e-10
1.76992e-10
1.83915e-10
1.74249e-10
1.68189e-10
1.71754e-10
1.69448e-10
1.80112e-10
1.8629e-10
2.17674e-10
2.14752e-10
1.94667e-10
1.94939e-10
2.07873e-10
2.16922e-10
9.65464e-10
9.35975e-10
1.10075e-09
1.12746e-09
1.12742e-09
1.11454e-09
8.89224e-10
8.63373e-10
6.13528e-10
5.74291e-10
5.95782e-10
5.62081e-10
7.04712e-10
6.64553e-10
8.18531e-10
8.6442e-10
7.01186e-10
6.55868e-10
7.21762e-10
7.72608e-10
6.45966e-10
6.95919e-10
4.64807e-10
4.33405e-10
4.68793e-10
4.53104e-10
5.04044e-10
5.315e-10
3.21617e-10
3.39743e-10
3.25781e-10
3.48746e-10
3.11056e-10
3.24188e-10
2.67237e-10
2.70185e-10
2.88015e-10
2.73766e-10
2.7745e-10
3.10658e-10
2.90435e-10
4.22426e-10
4.25497e-10
3.62875e-10
3.40659e-10
4.39552e-10
4.12242e-10
8.54058e-10
8.13485e-10
1.84292e-08
1.84611e-08
1.16149e-08
1.22853e-08
1.11012e-08
1.10106e-08
5.47923e-09
5.80141e-09
7.76428e-09
7.32917e-09
8.96342e-09
8.44818e-09
4.68955e-08
4.98269e-08
2.60916e-08
2.62376e-08
2.35165e-08
2.3333e-08
3.35641e-08
3.18604e-08
3.26713e-08
3.0993e-08
4.34376e-08
4.11484e-08
4.25627e-08
4.50191e-08
2.33818e-07
2.20862e-07
8.27142e-07
7.88308e-07
9.84406e-07
1.02175e-06
1.30861e-06
1.31825e-06
1.37894e-06
1.38954e-06
1.70984e-07
1.71858e-07
1.58447e-06
1.56948e-06
1.58137e-06
3.56526e-10
3.48797e-10
1.66052e-10
1.7292e-10
1.80106e-10
1.44661e-10
1.50941e-10
1.33171e-10
1.28417e-10
4.84412e-10
4.9656e-10
3.61409e-10
3.46376e-10
3.43555e-10
3.22462e-10
2.32383e-10
2.40653e-10
2.49235e-10
2.39895e-10
1.03379e-09
1.13193e-09
2.05385e-07
2.17084e-07
1.02862e-07
1.00737e-07
1.59776e-07
1.56379e-07
4.76771e-07
4.70692e-07
2.24122e-09
2.12428e-09
1.42735e-09
1.48827e-09
2.2054e-09
2.29813e-09
2.47971e-09
2.58451e-09
2.03532e-09
2.09755e-09
1.81473e-09
1.81764e-09
1.8426e-09
1.74938e-09
1.78306e-09
2.60741e-10
2.49753e-10
2.00218e-10
2.05702e-10
1.90888e-10
1.87429e-10
1.89323e-10
2.02438e-10
1.98854e-10
1.96362e-10
2.25905e-10
2.19405e-10
2.5671e-10
2.59237e-10
2.45304e-10
2.3449e-10
3.3592e-10
3.18456e-10
7.22132e-10
7.14963e-10
3.77917e-10
3.9602e-10
4.47885e-10
4.03879e-10
2.48055e-10
2.53346e-10
1.81239e-10
1.78867e-10
1.81458e-10
1.82187e-10
1.75039e-10
1.77487e-10
1.68786e-10
1.70542e-10
3.50083e-10
3.48362e-10
3.08892e-10
3.25011e-10
2.45932e-10
2.33731e-10
2.04639e-10
2.10488e-10
1.85877e-10
1.82137e-10
3.5094e-10
3.29171e-10
3.31172e-10
5.77944e-10
6.1026e-10
5.59977e-10
3.92269e-10
4.05467e-10
4.54911e-10
4.71677e-10
4.85953e-10
5.27923e-10
2.4834e-10
2.31021e-10
3.29049e-10
3.0739e-10
1.50341e-10
1.47343e-10
1.51728e-10
1.5402e-10
1.50235e-10
1.52369e-10
1.46939e-10
1.45446e-10
2.16511e-10
2.2103e-10
2.3714e-10
2.02751e-10
1.94027e-10
1.74595e-10
1.81124e-10
1.63188e-10
1.63484e-10
1.79977e-10
1.75212e-10
2.13545e-10
2.1409e-10
2.09071e-10
2.03042e-10
1.20722e-09
1.23788e-09
1.22804e-09
1.20308e-09
1.05862e-09
1.07236e-09
8.04249e-10
8.3034e-10
6.74242e-10
5.3822e-10
5.0536e-10
6.61949e-10
6.96687e-10
7.93451e-10
7.47745e-10
6.28618e-10
6.73707e-10
5.76109e-10
5.33284e-10
3.87116e-10
3.78393e-10
5.66719e-10
5.95112e-10
4.58416e-10
4.79678e-10
3.8204e-10
4.01772e-10
3.22287e-10
3.04836e-10
3.30366e-10
3.4387e-10
3.05171e-10
3.02749e-10
2.27986e-10
2.25359e-10
2.247e-10
2.25878e-10
2.65004e-10
2.73714e-10
2.71872e-10
4.51418e-10
4.54365e-10
3.54113e-10
3.31736e-10
4.30916e-10
4.03596e-10
1.94343e-08
1.94553e-08
1.95036e-08
1.95361e-08
1.30672e-08
1.30994e-08
1.10343e-08
1.1058e-08
5.4857e-09
5.20169e-09
5.82517e-09
5.50098e-09
7.80301e-09
7.36384e-09
1.14193e-08
1.21086e-08
1.23099e-08
1.22247e-08
2.19093e-08
2.1966e-08
2.75937e-08
2.77516e-08
1.98714e-08
1.97125e-08
5.67573e-08
6.00383e-08
3.64924e-08
3.67811e-08
3.82267e-08
4.03051e-08
3.12047e-08
2.95896e-08
3.22114e-08
3.05552e-08
5.37038e-08
5.68313e-08
4.24839e-08
4.01777e-08
4.55137e-08
4.30119e-08
8.42576e-08
8.50157e-08
8.34384e-07
8.41314e-07
1.03176e-06
9.93843e-07
1.2959e-06
1.30539e-06
1.19731e-06
1.15383e-06
3.59596e-07
3.80084e-07
1.72541e-07
1.62483e-07
3.82693e-07
3.80741e-07
5.19857e-07
5.16527e-07
2.03769e-10
1.92917e-10
1.9063e-10
3.16651e-10
3.42839e-10
2.09885e-10
2.2369e-10
2.02082e-10
1.84563e-10
1.98222e-09
2.12128e-09
1.5847e-10
1.65984e-10
5.69657e-10
5.85185e-10
5.09878e-10
5.23988e-10
2.96569e-10
3.19728e-10
2.78738e-10
2.91429e-10
2.83811e-10
2.76852e-10
7.82619e-10
7.29047e-10
1.24525e-09
1.23683e-09
3.64692e-07
3.76197e-07
7.72801e-08
7.56935e-08
1.07066e-07
1.09333e-07
9.86385e-08
9.65627e-08
5.58237e-07
5.50464e-07
3.75391e-07
3.68512e-07
8.31784e-10
7.86816e-10
5.54411e-09
5.52616e-09
3.14742e-09
3.09238e-09
9.91822e-10
9.38552e-10
1.66907e-09
1.60164e-09
2.41923e-09
2.32775e-09
2.00373e-09
2.06637e-09
1.98418e-09
1.92617e-09
1.80641e-09
1.85523e-09
1.87752e-09
9.18056e-10
2.01405e-10
2.07602e-10
1.80459e-10
1.83956e-10
2.11819e-10
2.17583e-10
2.2261e-10
2.14727e-10
2.47723e-10
2.45435e-10
3.02871e-10
2.8727e-10
2.98052e-10
2.81097e-10
7.72769e-10
7.71913e-10
8.1503e-10
6.48943e-10
6.6463e-10
3.2426e-10
3.40238e-10
4.85326e-10
5.00181e-10
2.25813e-10
2.19035e-10
2.21183e-10
2.26269e-10
1.91274e-10
1.9352e-10
1.79968e-10
1.70889e-10
1.72872e-10
1.78365e-10
1.80093e-10
3.29517e-10
3.44799e-10
3.61496e-10
3.54457e-10
2.87726e-10
2.7437e-10
2.11424e-10
2.19491e-10
2.64341e-10
2.57195e-10
2.48555e-10
3.0896e-10
2.93068e-10
3.6222e-10
3.38715e-10
4.52748e-10
4.24717e-10
4.29846e-10
3.30963e-10
3.14692e-10
3.37129e-10
3.63468e-10
3.74183e-10
4.23073e-10
4.38059e-10
5.00205e-10
5.4198e-10
2.6847e-10
1.71476e-10
1.72589e-10
1.54386e-10
1.53189e-10
1.5092e-10
1.49003e-10
1.49784e-10
1.49671e-10
2.00486e-10
1.96823e-10
2.28044e-10
2.38393e-10
2.05229e-10
1.96395e-10
1.86328e-10
1.79663e-10
1.83605e-10
1.81044e-10
1.68206e-10
1.67997e-10
2.04803e-10
2.07662e-10
1.10386e-09
1.13585e-09
9.96103e-10
1.02042e-09
1.15328e-09
1.17906e-09
1.10425e-09
1.09487e-09
7.4867e-10
7.74181e-10
7.4755e-10
7.21942e-10
6.0256e-10
6.42134e-10
6.27383e-10
5.93292e-10
6.22853e-10
5.78507e-10
4.90333e-10
4.99049e-10
5.52188e-10
5.75492e-10
4.25897e-10
4.05665e-10
4.01681e-10
4.27101e-10
3.19593e-10
3.11492e-10
3.51401e-10
3.65276e-10
2.83778e-10
2.85743e-10
2.37894e-10
2.40679e-10
2.52306e-10
2.51048e-10
2.52244e-10
2.61006e-10
4.51399e-10
4.5428e-10
4.82249e-10
4.84872e-10
3.86723e-10
3.78035e-10
1.83801e-08
1.83583e-08
1.38296e-08
1.38648e-08
1.23781e-08
1.16983e-08
7.8741e-09
7.42491e-09
1.04264e-08
1.03364e-08
5.05432e-09
5.00516e-09
5.19433e-09
5.17439e-09
6.14233e-09
6.50369e-09
6.91901e-09
6.88698e-09
9.02069e-09
8.50024e-09
1.17817e-08
1.11188e-08
4.70376e-08
4.98084e-08
2.07551e-08
2.07022e-08
1.8961e-08
2.0071e-08
1.83288e-08
1.81787e-08
2.17063e-08
2.1525e-08
2.36998e-08
4.65063e-08
4.38502e-08
4.13296e-08
3.89719e-08
3.6134e-08
3.7978e-08
4.00424e-08
3.14154e-08
2.97917e-08
2.93875e-08
2.91816e-08
3.22078e-08
3.19657e-08
3.38585e-08
3.58679e-08
5.21617e-08
4.93493e-08
4.29791e-08
4.06924e-08
4.60079e-08
4.34687e-08
8.23091e-08
7.77736e-08
6.27453e-08
6.23016e-08
7.3118e-07
7.65498e-07
7.20505e-07
7.57317e-07
9.55692e-07
9.46742e-07
1.22867e-06
1.25627e-06
1.32104e-06
1.33083e-06
1.2395e-06
1.27329e-06
3.58362e-07
3.78641e-07
1.45397e-07
1.44728e-07
2.47766e-07
2.47491e-07
4.28924e-07
4.31298e-07
3.99729e-07
4.01972e-07
7.54336e-07
7.51076e-07
1.56915e-06
1.56753e-06
2.20371e-10
2.05291e-10
2.85211e-10
2.9369e-10
1.98725e-10
2.0913e-10
2.44522e-10
2.58705e-10
1.81313e-10
1.85912e-10
1.97263e-10
3.84267e-10
3.76759e-10
1.20245e-10
1.17565e-10
5.37813e-10
5.64212e-10
5.51728e-10
4.67905e-10
4.56047e-10
3.4412e-10
3.6862e-10
2.24454e-10
2.24748e-10
2.17582e-10
2.13765e-10
2.61611e-10
2.59423e-10
3.09346e-10
1.04228e-09
1.01779e-09
1.14058e-09
1.04248e-09
1.57565e-07
1.54406e-07
4.58499e-07
4.62596e-07
1.79913e-07
1.82574e-07
9.81986e-08
9.63784e-08
1.13782e-07
1.16199e-07
5.3791e-07
5.29196e-07
3.88254e-07
3.95467e-07
1.15002e-09
1.08314e-09
9.56585e-10
9.05362e-10
5.23644e-09
5.2499e-09
4.51485e-09
4.29871e-09
3.6676e-09
3.64714e-09
3.2039e-09
3.21921e-09
1.53758e-09
1.47668e-09
2.43952e-09
2.54461e-09
2.62535e-09
2.72752e-09
1.97961e-09
2.04268e-09
2.10661e-09
2.04411e-09
1.77577e-09
1.73647e-09
2.26934e-10
2.35517e-10
2.21341e-10
2.29985e-10
1.86223e-10
1.82176e-10
1.91787e-10
1.87676e-10
2.27848e-10
2.35061e-10
2.37203e-10
2.3513e-10
2.72912e-10
2.58191e-10
2.8227e-10
2.67785e-10
5.82195e-10
5.84004e-10
6.22001e-10
3.63386e-10
3.71e-10
3.46259e-10
3.59017e-10
4.42398e-10
4.60384e-10
2.28998e-10
2.39301e-10
1.83721e-10
1.88349e-10
1.73743e-10
1.71555e-10
4.04009e-10
3.96726e-10
3.35631e-10
3.4252e-10
1.82343e-10
1.79536e-10
2.15164e-10
2.09491e-10
1.99377e-10
2.05066e-10
3.98616e-10
4.28561e-10
4.14294e-10
3.28045e-10
3.38421e-10
2.92437e-10
2.79199e-10
3.69503e-10
3.58614e-10
3.46457e-10
3.09448e-10
4.70488e-10
4.67251e-10
1.17806e-09
1.16556e-09
2.99117e-10
2.80942e-10
3.43323e-10
3.80066e-10
3.53328e-10
4.85366e-10
5.0505e-10
5.19844e-10
4.49325e-10
4.62923e-10
1.66689e-10
1.63154e-10
1.64334e-10
1.66902e-10
1.51334e-10
1.50338e-10
1.42524e-10
1.4144e-10
1.42244e-10
1.55421e-10
1.55686e-10
1.50035e-10
1.50915e-10
1.91715e-10
1.88507e-10
2.26373e-10
2.16767e-10
2.25886e-10
2.15201e-10
1.86521e-10
1.94556e-10
1.74875e-10
1.77314e-10
1.05039e-09
1.08309e-09
1.27115e-09
1.31859e-09
1.04634e-09
1.07407e-09
9.28284e-10
9.5072e-10
9.47788e-10
9.94528e-10
9.93127e-10
9.75394e-10
7.95493e-10
8.15104e-10
7.66645e-10
7.7661e-10
6.32611e-10
6.72485e-10
4.69532e-10
4.60317e-10
5.41268e-10
5.18736e-10
5.34341e-10
5.62284e-10
3.79417e-10
3.60188e-10
4.24573e-10
4.50534e-10
3.00567e-10
2.92658e-10
2.84304e-10
2.87251e-10
2.51809e-10
2.54699e-10
2.40103e-10
2.48848e-10
4.22314e-10
4.25153e-10
4.36428e-09
4.34981e-09
1.47484e-08
1.47125e-08
1.50865e-08
1.59593e-08
1.15834e-08
1.22501e-08
9.84811e-09
1.04121e-08
7.39597e-09
7.86171e-09
1.50759e-08
1.51859e-08
7.88104e-09
8.359e-09
5.69866e-09
5.72408e-09
6.74643e-09
6.32338e-09
5.84877e-09
5.52339e-09
7.87989e-09
7.43121e-09
6.53255e-09
6.16848e-09
6.94997e-09
9.0844e-09
8.55934e-09
9.57045e-09
8.1821e-09
8.66669e-09
1.09046e-08
1.15465e-08
6.04062e-08
6.39684e-08
5.62674e-08
5.30636e-08
3.30978e-08
3.31807e-08
2.28806e-08
2.27916e-08
1.64089e-08
1.63027e-08
1.69123e-08
1.59688e-08
2.44282e-08
2.46076e-08
2.05187e-08
2.03474e-08
2.56846e-08
2.54779e-08
4.84808e-08
5.13226e-08
3.86569e-08
3.82568e-08
3.02066e-08
2.99959e-08
3.46438e-08
3.64838e-08
3.07769e-08
3.24462e-08
2.71673e-08
2.69541e-08
3.61777e-08
3.64752e-08
4.89321e-08
5.17235e-08
4.49292e-08
4.54182e-08
3.79917e-08
4.02223e-08
5.45052e-08
5.15087e-08
1.70361e-07
1.80738e-07
6.80036e-08
6.43005e-08
7.00612e-08
7.0534e-08
6.31465e-08
2.64928e-07
2.80074e-07
1.13237e-06
1.08682e-06
8.11916e-07
7.7403e-07
1.071e-06
1.03122e-06
1.05032e-06
1.01144e-06
1.12666e-06
1.08889e-06
1.26838e-06
1.24033e-06
1.31556e-06
1.3037e-06
1.2939e-06
1.25908e-06
1.36792e-06
1.37837e-06
7.68484e-08
7.26197e-08
2.48857e-07
2.49872e-07
3.17886e-07
3.19434e-07
2.75596e-07
2.92212e-07
4.49396e-07
4.52305e-07
4.04164e-07
4.0631e-07
6.88736e-07
6.84749e-07
1.20571e-06
1.20255e-06
1.59544e-06
1.60279e-06
8.01545e-10
7.90392e-10
3.22168e-10
3.00455e-10
3.12022e-10
2.6485e-10
2.73482e-10
2.48752e-10
2.55576e-10
2.62257e-10
2.20606e-10
1.58581e-10
5.54236e-10
5.78436e-10
2.44712e-10
2.56657e-10
1.23225e-10
1.22061e-10
1.74053e-10
1.6603e-10
5.24921e-10
5.12397e-10
3.17762e-10
3.01976e-10
3.90976e-10
3.66457e-10
2.1904e-10
2.30123e-10
2.16123e-10
2.38378e-10
2.30787e-10
2.27958e-10
2.40143e-10
3.80257e-10
3.58787e-10
3.56591e-10
1.6755e-09
1.68833e-09
8.18865e-10
7.65028e-10
4.22785e-09
3.9666e-09
4.94029e-08
4.94344e-08
2.43571e-07
2.30867e-07
4.50199e-07
4.54222e-07
2.04323e-07
1.93156e-07
6.27038e-08
6.37087e-08
1.02532e-07
1.04473e-07
9.28052e-08
9.08612e-08
1.33545e-07
1.30711e-07
2.0459e-07
2.00514e-07
6.91818e-07
6.97281e-07
4.59224e-07
4.50869e-07
9.00107e-07
9.24651e-07
8.09296e-10
7.65024e-10
8.57206e-10
8.11678e-10
3.22022e-09
3.38985e-09
4.0644e-09
4.30284e-09
3.82209e-09
3.92325e-09
3.78418e-09
3.0825e-09
3.06581e-09
1.20566e-09
1.2735e-09
1.88387e-09
1.95768e-09
2.39681e-09
2.50206e-09
2.57988e-09
2.68333e-09
2.56361e-09
2.47587e-09
1.69321e-09
1.74438e-09
2.02238e-09
2.08474e-09
1.92773e-09
1.98339e-09
9.57206e-10
9.55596e-10
2.17097e-10
2.25443e-10
2.29173e-10
2.39547e-10
1.88843e-10
1.90781e-10
1.83955e-10
1.80626e-10
2.37236e-10
2.45178e-10
2.11593e-10
2.09822e-10
2.70538e-10
2.84234e-10
8.43902e-10
8.37526e-10
5.8559e-10
3.86334e-10
1.77891e-10
1.75851e-10
3.74796e-10
3.81969e-10
1.77039e-10
2.16743e-10
2.23545e-10
2.05753e-10
2.11896e-10
2.87333e-10
2.78072e-10
2.99927e-10
2.80964e-10
2.69171e-10
2.69287e-10
3.95201e-10
4.36247e-10
4.30118e-10
6.1399e-10
7.90332e-10
7.82439e-10
2.85283e-10
2.66421e-10
3.6763e-10
3.54667e-10
4.41547e-10
4.09745e-10
5.60219e-10
1.81287e-10
1.8961e-10
2.0616e-10
1.68449e-10
1.66023e-10
1.64157e-10
1.69386e-10
1.60664e-10
1.64468e-10
1.45406e-10
1.45496e-10
1.42166e-10
1.42694e-10
1.59013e-10
1.5942e-10
1.53693e-10
1.52716e-10
2.03644e-10
1.96707e-10
2.10277e-10
2.06146e-10
2.03497e-10
2.13084e-10
8.25979e-10
8.53179e-10
9.43701e-10
9.77581e-10
1.11804e-09
1.17021e-09
1.22148e-09
1.07604e-09
1.05326e-09
1.08929e-09
1.14285e-09
1.08503e-09
1.03154e-09
8.96216e-10
8.55776e-10
9.13759e-10
8.32881e-10
3.8846e-10
3.7421e-10
4.40692e-10
4.3155e-10
6.01476e-10
6.30222e-10
3.58752e-10
3.40057e-10
3.03075e-10
3.05987e-10
2.5926e-10
2.55329e-10
5.18596e-09
5.44273e-09
2.53499e-09
2.53443e-09
3.81311e-08
3.60313e-08
7.78462e-09
7.34537e-09
7.56825e-09
7.9908e-09
1.37515e-08
1.37081e-08
9.80837e-09
1.03651e-08
1.1672e-08
1.23489e-08
1.10093e-08
6.09538e-09
5.8018e-09
1.35369e-08
1.34325e-08
1.44437e-08
1.5294e-08
7.68653e-09
7.28819e-09
5.54367e-09
5.25753e-09
5.30802e-09
5.35452e-09
5.28936e-09
5.31954e-09
4.90341e-09
4.62703e-09
5.21572e-09
6.97977e-09
7.00817e-09
6.56037e-09
6.19384e-09
9.15291e-09
8.62454e-09
9.44973e-09
9.5081e-09
1.41075e-08
1.33171e-08
1.16243e-08
1.09755e-08
5.48214e-08
5.79967e-08
5.29516e-08
5.61416e-08
3.45941e-08
3.64675e-08
3.29985e-08
1.74983e-08
1.74551e-08
2.59398e-08
2.74283e-08
1.97962e-08
1.99347e-08
1.80309e-08
1.81504e-08
1.73208e-08
1.71809e-08
2.03427e-08
2.01866e-08
2.18853e-08
2.06883e-08
2.42848e-08
2.40855e-08
2.58843e-08
5.85531e-08
5.53048e-08
4.35659e-08
4.62282e-08
3.16307e-08
3.33194e-08
4.06702e-08
3.8584e-08
3.28889e-08
3.31016e-08
2.96615e-08
2.81287e-08
3.04164e-08
3.01887e-08
3.24167e-08
5.42129e-08
5.73684e-08
4.38573e-08
4.15544e-08
4.5881e-08
4.06271e-08
3.83494e-08
5.56944e-08
5.2627e-08
4.86807e-08
6.96613e-08
6.94346e-08
6.84596e-08
6.4718e-08
6.72377e-08
6.75949e-08
7.08987e-08
6.68866e-08
2.18989e-07
2.3182e-07
5.70161e-07
5.76483e-07
1.01406e-06
9.98921e-07
1.03347e-06
8.19615e-07
7.81301e-07
7.95028e-07
8.32957e-07
9.17389e-07
8.79055e-07
9.72627e-07
9.64342e-07
1.13635e-06
1.09781e-06
1.28017e-06
1.25163e-06
1.29154e-06
1.27908e-06
1.119e-06
1.16194e-06
1.2837e-06
1.24936e-06
1.36417e-06
1.39067e-06
1.09784e-07
1.1632e-07
1.28674e-07
1.36478e-07
2.61081e-07
2.62287e-07
2.18826e-07
2.19501e-07
1.64288e-07
1.55403e-07
2.62914e-07
2.6344e-07
3.13823e-07
3.12509e-07
4.53825e-07
4.29026e-07
4.55094e-07
4.57742e-07
4.92537e-07
4.8923e-07
6.80627e-07
6.76747e-07
1.50899e-06
1.51628e-06
1.59375e-06
1.59507e-06
1.60001e-06
9.77933e-10
1.02547e-09
1.32287e-10
1.36953e-10
2.73679e-10
2.59711e-10
2.78178e-10
3.26276e-10
2.74429e-10
2.69959e-10
2.18508e-10
2.39791e-10
2.54053e-10
2.39887e-10
1.96745e-09
2.10405e-09
3.49197e-10
3.56748e-10
1.62852e-10
1.71178e-10
1.26565e-10
1.26359e-10
1.19405e-10
1.17052e-10
1.31345e-10
1.28701e-10
1.58504e-10
1.62028e-10
4.6311e-10
4.32648e-10
3.32079e-10
3.1719e-10
3.93177e-10
4.05359e-10
4.17013e-10
2.22537e-10
2.37784e-10
2.33638e-10
1.80357e-10
1.70149e-10
2.50839e-10
2.43279e-10
2.66644e-10
1.39049e-10
1.33252e-10
1.3185e-10
1.11253e-09
1.09189e-09
1.0679e-09
8.56205e-10
9.41987e-10
7.7954e-09
7.65737e-09
1.20775e-08
1.21567e-08
8.89856e-08
8.7643e-08
2.86742e-07
2.71598e-07
2.47736e-07
2.34832e-07
4.42229e-07
4.46182e-07
3.63695e-07
3.7957e-07
1.90342e-07
2.01349e-07
6.03351e-08
5.91808e-08
1.09059e-07
1.11129e-07
1.11565e-07
1.13773e-07
8.73132e-08
8.54922e-08
1.33973e-07
1.36788e-07
1.50546e-07
1.47343e-07
4.82365e-07
4.72658e-07
6.68752e-07
6.81985e-07
7.36458e-07
7.42082e-07
4.14286e-07
4.06986e-07
4.56056e-07
4.49011e-07
6.28329e-07
6.52356e-07
1.02678e-06
1.03502e-06
9.07374e-10
8.56556e-10
9.33955e-10
9.85358e-10
3.3542e-09
3.18392e-09
4.33912e-09
4.10127e-09
2.8196e-09
2.77187e-09
3.75436e-09
3.79099e-09
3.04362e-09
3.0163e-09
1.74489e-09
1.85033e-09
1.46162e-09
1.41313e-09
2.35212e-09
2.4575e-09
2.34117e-09
2.24879e-09
2.60498e-09
2.70781e-09
2.39324e-09
2.31542e-09
1.71335e-09
1.66923e-09
1.95045e-09
2.01403e-09
1.90771e-09
1.96341e-09
2.0425e-09
2.10482e-09
1.03323e-09
1.07487e-09
2.08113e-10
2.05125e-10
2.12613e-10
2.37647e-10
2.47286e-10
1.93517e-10
1.96044e-10
2.31467e-10
8.60497e-10
9.53065e-10
9.21259e-10
1.82035e-10
1.81121e-10
1.79597e-10
2.25728e-10
2.3656e-10
3.57435e-10
3.40717e-10
2.39978e-10
2.52952e-10
2.59202e-10
3.18963e-10
4.82848e-10
8.4049e-10
8.38565e-10
6.07591e-10
6.52748e-10
6.6182e-10
2.98566e-10
3.1631e-10
4.28605e-10
4.15024e-10
2.08973e-10
2.17216e-10
2.23947e-10
1.78416e-10
1.81115e-10
1.58876e-10
1.541e-10
1.62134e-10
1.59826e-10
1.64997e-10
1.69428e-10
1.4738e-10
1.47468e-10
1.44419e-10
1.43868e-10
1.60515e-10
1.59372e-10
1.5233e-10
1.525e-10
2.06165e-10
2.14069e-10
1.0198e-09
9.91116e-10
1.01354e-09
1.06563e-09
1.18769e-09
1.15639e-09
9.73056e-10
1.03221e-09
1.043e-09
1.05067e-09
7.99789e-10
3.98786e-10
4.13438e-10
3.62853e-10
3.54342e-10
5.0944e-10
4.87594e-10
2.6655e-10
2.68088e-10
1.83574e-09
1.76511e-09
1.19995e-09
1.21775e-09
2.7073e-09
2.69983e-09
3.14423e-08
3.14019e-08
3.23137e-08
3.2341e-08
7.20355e-09
6.81604e-09
9.90624e-09
1.04783e-08
1.06203e-08
1.00417e-08
6.2764e-09
5.96987e-09
1.54925e-08
1.55349e-08
1.30328e-08
1.37916e-08
1.09837e-08
1.09557e-08
1.16438e-08
1.23176e-08
6.12649e-09
5.83352e-09
1.27799e-08
1.2678e-08
1.43383e-08
1.42311e-08
1.00898e-08
9.54856e-09
5.66756e-09
5.37432e-09
5.60519e-09
5.31564e-09
5.39332e-09
5.10124e-09
6.23464e-09
6.65884e-09
4.95318e-09
4.89939e-09
5.23852e-09
5.26294e-09
4.61078e-09
4.88537e-09
7.39781e-09
7.84144e-09
9.63804e-09
9.71001e-09
8.81129e-09
8.31212e-09
1.32224e-08
1.40045e-08
1.17025e-08
1.10467e-08
6.00456e-08
6.35872e-08
6.16536e-08
6.52808e-08
5.28593e-08
5.60287e-08
3.50184e-08
3.51237e-08
2.79323e-08
2.79795e-08
1.8478e-08
1.85241e-08
2.0095e-08
2.12616e-08
1.85993e-08
1.87029e-08
1.88312e-08
1.86994e-08
1.61935e-08
1.60821e-08
1.52803e-08
1.51673e-08
2.58084e-08
2.59977e-08
2.25899e-08
2.27636e-08
2.20629e-08
2.22392e-08
1.95534e-08
1.93935e-08
2.60778e-08
2.62678e-08
2.29602e-08
2.27694e-08
4.51623e-08
4.27628e-08
5.49676e-08
5.81846e-08
4.32969e-08
4.59715e-08
3.10422e-08
3.08499e-08
3.41947e-08
3.6034e-08
3.8433e-08
4.05204e-08
3.97396e-08
3.76948e-08
2.98748e-08
2.83331e-08
2.8741e-08
2.85218e-08
5.31714e-08
5.62704e-08
4.42389e-08
4.19175e-08
4.70116e-08
4.44296e-08
4.10432e-08
3.87148e-08
4.97367e-08
4.92105e-08
1.69558e-07
1.79919e-07
8.52972e-08
9.02163e-08
7.18714e-08
7.23812e-08
7.52807e-08
7.53875e-08
6.64966e-08
6.60383e-08
2.61768e-07
2.76737e-07
5.87952e-07
6.18239e-07
1.06773e-06
1.08392e-06
9.38899e-07
8.95931e-07
8.74746e-07
8.82282e-07
8.98152e-07
8.58656e-07
8.64502e-07
8.25964e-07
8.40631e-07
8.02131e-07
9.25729e-07
8.87129e-07
1.0029e-06
1.04132e-06
1.25605e-06
1.26521e-06
1.29164e-06
1.2626e-06
1.17939e-06
1.1357e-06
1.30386e-06
1.26863e-06
1.4001e-06
1.41102e-06
1.42012e-06
1.43136e-06
9.84784e-08
9.86417e-08
1.1656e-07
1.1001e-07
1.37182e-07
1.29408e-07
2.63397e-07
2.64463e-07
1.8254e-07
1.82821e-07
1.64245e-07
1.55599e-07
2.79338e-07
2.80171e-07
2.61571e-07
2.46494e-07
3.53348e-07
3.33053e-07
3.11166e-07
3.09795e-07
4.26461e-07
4.23916e-07
5.57537e-07
5.51313e-07
7.17069e-07
7.20637e-07
1.05938e-06
1.01355e-06
1.01505e-06
1.01652e-06
1.46768e-06
1.46559e-06
1.5777e-06
1.07584e-09
1.12365e-09
7.22675e-10
7.65759e-10
1.45199e-10
1.51656e-10
3.63689e-10
3.60184e-10
2.27019e-10
2.45114e-10
2.91755e-10
3.0084e-10
2.05097e-10
2.00812e-10
1.91403e-10
1.93509e-10
2.31173e-10
2.19417e-10
1.58335e-10
1.48566e-10
7.59529e-10
7.82014e-10
6.59126e-10
6.43075e-10
3.3295e-10
3.18429e-10
2.5112e-10
2.68377e-10
1.67539e-10
1.59388e-10
1.29975e-10
1.30643e-10
1.30515e-10
1.28572e-10
1.19056e-10
1.16983e-10
1.3397e-10
1.38345e-10
1.18649e-10
1.20404e-10
1.51087e-10
1.52748e-10
3.87938e-10
4.07549e-10
4.00489e-10
3.32193e-10
3.79634e-10
3.54983e-10
2.83935e-10
2.62345e-10
2.19323e-10
2.0922e-10
2.01275e-10
1.91855e-10
1.85404e-10
2.00763e-10
3.44269e-10
3.34528e-10
3.61393e-10
1.92153e-10
1.91679e-10
2.70819e-10
2.63886e-10
1.19994e-09
1.15452e-09
1.14946e-09
1.10836e-09
8.40004e-10
8.77476e-10
1.15561e-09
1.05802e-09
1.60399e-09
1.59633e-09
4.13355e-09
3.93289e-09
2.20629e-09
2.2095e-09
8.36944e-08
7.86767e-08
6.79425e-08
6.37618e-08
1.77154e-07
1.67106e-07
1.65974e-07
1.75877e-07
3.81846e-07
3.7018e-07
4.5127e-07
4.43098e-07
3.95194e-07
4.10342e-07