/*--------------------------------*- C++ -*----------------------------------*\
  =========                 |
  \\      /  F ield         | OpenFOAM: The Open Source CFD Toolbox
   \\    /   O peration     | Website:  https://openfoam.org
    \\  /    A nd           | Version:  7
     \\/     M anipulation  |
\*---------------------------------------------------------------------------*/
FoamFile
{
    version     2.0;
    format      ascii;
    class       volScalarField;
    location    "2040";
    object      T;
}
// * * * * * * * * * * * * * * * * * * * * * * * * * * * * * * * * * * * * * //

dimensions      [0 0 0 1 0 0 0];

internalField   nonuniform List<scalar> 
238806
(
9.434e-06
9.65006e-06
1.44957e-05
1.49803e-05
1.40751e-05
1.0862e-05
1.08022e-05
9.44033e-06
9.24634e-06
1.52041e-05
1.55224e-05
1.33254e-05
2.1423e-05
2.18513e-05
2.43666e-05
2.27595e-05
1.58101e-05
1.62484e-05
8.20629e-06
8.18279e-06
1.93492e-05
2.02117e-05
2.28558e-05
2.32477e-05
2.42712e-05
1.51395e-05
1.57036e-05
1.5879e-05
1.70377e-05
1.6812e-05
8.24146e-06
8.1734e-06
1.94273e-05
1.82857e-05
1.60264e-05
1.52435e-05
0.00876277
0.00881265
1.46692e-05
1.42537e-05
1.48586e-05
1.59295e-05
9.20815e-06
9.14884e-06
8.25662e-06
8.28586e-06
2.50395e-05
2.33898e-05
1.72077e-05
1.61965e-05
1.21364e-05
1.18884e-05
2.0376e-05
2.08041e-05
0.0016327
0.00161342
1.48571e-05
1.43611e-05
1.43557e-05
1.3464e-05
1.38529e-05
1.41482e-05
1.38811e-05
1.40479e-05
1.35347e-05
8.3155e-06
8.33728e-06
9.07237e-06
9.2341e-06
1.03842e-05
1.06734e-05
1.9517e-05
2.07232e-05
1.67735e-05
1.778e-05
1.34871e-05
1.39102e-05
1.61021e-05
1.53211e-05
0.000328248
0.000326723
1.4277e-05
1.34909e-05
1.01038e-05
9.99802e-06
1.23093e-05
1.27136e-05
1.75512e-05
1.70179e-05
1.64985e-05
1.69712e-05
1.29518e-05
1.33881e-05
9.44194e-06
9.51501e-06
1.37264e-05
1.32469e-05
1.39223e-05
1.47031e-05
1.56081e-05
8.37369e-06
8.98707e-06
9.09859e-06
9.25305e-06
9.19543e-06
2.85305e-05
2.98061e-05
1.80547e-05
1.90792e-05
1.88753e-05
2.00547e-05
1.3916e-05
1.33961e-05
1.23708e-05
1.26213e-05
2.10927e-05
2.00476e-05
0.0097131
0.00969505
0.00975016
2.04511e-05
2.17263e-05
1.03775e-05
1.05089e-05
1.06396e-05
1.05844e-05
2.58572e-05
2.60735e-05
1.86254e-05
1.834e-05
1.38272e-05
1.70815e-05
1.75926e-05
1.70778e-05
1.29996e-05
1.25153e-05
9.46862e-06
9.38012e-06
2.1191e-05
2.20878e-05
2.16491e-05
2.1123e-05
1.3181e-05
8.71622e-06
8.82886e-06
8.70706e-06
8.79854e-06
9.27588e-06
9.15298e-06
9.92563e-06
1.01282e-05
1.11705e-05
1.14173e-05
2.79356e-05
2.93838e-05
2.03218e-05
2.13789e-05
2.02052e-05
2.14316e-05
2.02355e-05
2.11084e-05
1.4065e-05
1.44946e-05
1.18094e-05
1.19941e-05
1.61711e-05
1.53793e-05
0.000256958
0.000258175
0.00871452
0.00876408
1.48487e-05
1.4082e-05
5.9178e-05
5.98914e-05
5.98186e-05
1.01787e-05
1.02974e-05
1.3064e-05
1.33151e-05
2.79461e-05
2.79623e-05
1.82587e-05
1.6878e-05
1.62807e-05
1.6438e-05
1.00611e-05
1.01224e-05
9.35527e-06
9.28004e-06
9.22648e-06
9.16518e-06
1.01786e-05
1.03211e-05
1.43086e-05
1.36889e-05
1.35591e-05
1.82802e-05
1.81563e-05
1.42461e-05
1.45228e-05
8.29579e-06
8.24525e-06
8.78182e-06
8.91811e-06
8.91676e-06
9.05727e-06
1.14537e-05
1.18913e-05
1.0404e-05
1.01907e-05
4.26435e-05
4.2054e-05
3.19198e-05
3.34985e-05
2.57698e-05
2.43202e-05
2.19301e-05
2.06363e-05
1.84054e-05
1.73922e-05
1.38761e-05
1.44409e-05
1.29124e-05
1.24825e-05
1.24624e-05
1.22833e-05
1.60482e-05
1.52612e-05
0.000133042
0.000127049
0.00076374
0.00073036
0.000693196
0.000662839
0.00307107
0.00320519
9.18003e-06
8.86357e-06
1.06543e-05
1.00732e-05
2.44857e-05
2.5796e-05
7.75787e-05
8.00786e-05
1.05952e-05
1.07308e-05
1.2453e-05
1.22321e-05
1.31967e-05
1.36597e-05
1.61266e-05
1.67235e-05
2.23584e-05
2.20304e-05
1.53084e-05
1.47306e-05
9.48463e-06
9.39857e-06
9.41812e-06
9.33689e-06
9.37322e-06
9.29515e-06
1.54652e-05
1.54042e-05
1.04249e-05
1.02453e-05
1.43515e-05
1.46335e-05
2.00576e-05
2.12634e-05
1.27876e-05
1.86794e-05
1.15978e-05
1.19346e-05
1.13041e-05
8.33085e-06
8.38991e-06
8.48208e-06
8.55831e-06
8.94033e-06
8.83924e-06
9.79589e-06
9.53515e-06
9.61748e-06
9.60691e-06
1.02087e-05
1.03189e-05
3.32222e-05
3.41503e-05
2.82041e-05
2.73833e-05
3.2982e-05
3.45469e-05
2.90306e-05
3.06491e-05
2.27578e-05
2.41842e-05
2.13201e-05
2.26842e-05
2.09379e-05
2.21787e-05
2.15787e-05
2.2152e-05
1.56931e-05
1.64865e-05
1.34676e-05
1.37229e-05
1.29602e-05
1.33817e-05
2.0859e-05
2.07232e-05
1.70089e-05
1.68835e-05
1.71665e-05
1.79975e-05
0.000235701
0.000225803
0.000166938
0.000159501
0.000284914
0.000297793
0.000341584
0.000343137
0.000848331
0.000842523
0.00321287
0.00307762
0.00979504
1.5438e-05
1.47133e-05
2.18358e-05
2.06296e-05
0.00133985
0.0014034
3.30452e-05
3.16898e-05
6.06718e-05
6.19307e-05
1.08965e-05
1.11554e-05
1.04495e-05
1.03959e-05
1.28692e-05
1.26323e-05
1.41161e-05
1.47209e-05
1.94048e-05
1.92874e-05
1.97239e-05
2.01705e-05
1.10264e-05
1.06639e-05
9.52864e-06
9.44981e-06
9.66297e-06
9.75087e-06
9.74704e-06
9.2743e-06
9.34939e-06
1.43062e-05
1.42445e-05
1.16931e-05
1.13388e-05
1.05754e-05
1.03847e-05
1.59133e-05
1.6704e-05
2.32189e-05
1.11884e-05
1.16393e-05
1.59251e-05
1.50205e-05
1.37019e-05
1.31685e-05
1.32268e-05
1.36588e-05
9.39605e-06
9.6017e-06
8.41024e-06
8.35366e-06
8.49579e-06
8.52997e-06
8.54673e-06
8.65542e-06
8.65806e-06
8.78061e-06
1.3997e-05
1.3439e-05
1.23869e-05
1.19329e-05
9.40593e-06
9.4782e-06
9.24649e-06
9.33781e-06
1.01489e-05
1.0152e-05
1.04851e-05
1.07105e-05
1.17373e-05
1.2148e-05
4.04203e-05
4.10542e-05
2.62136e-05
2.51234e-05
3.40976e-05
3.56488e-05
2.99485e-05
3.15549e-05
2.64993e-05
2.81287e-05
2.41692e-05
2.57636e-05
2.17158e-05
2.29681e-05
2.10909e-05
2.05698e-05
1.63268e-05
1.71371e-05
1.31484e-05
1.28957e-05
1.51989e-05
1.44908e-05
1.78183e-05
1.6935e-05
1.78947e-05
1.77681e-05
1.63881e-05
0.00019157
0.000183893
0.000133411
0.000127431
0.000181814
0.000190231
0.000211204
0.000201658
0.000729747
0.000763343
0.000621526
0.000598101
0.000773928
0.000807447
0.00600182
0.00597652
0.00103954
0.000996991
1.21057e-05
1.17549e-05
1.22417e-05
2.28096e-05
2.33312e-05
2.28418e-05
2.35343e-05
2.31811e-05
2.27378e-05
0.00156035
0.00154193
5.22123e-05
5.40184e-05
5.79581e-05
5.90702e-05
6.06663e-05
6.07244e-05
3.39292e-05
3.37175e-05
1.05403e-05
1.03857e-05
1.08452e-05
1.10251e-05
1.17307e-05
1.16635e-05
1.27575e-05
1.54987e-05
1.54113e-05
1.60912e-05
2.04618e-05
2.16511e-05
2.15606e-05
2.12272e-05
9.73296e-06
9.78689e-06
9.66316e-06
9.53671e-06
9.61432e-06
9.50833e-06
9.57082e-06
9.25787e-06
9.19343e-06
1.6802e-05
1.67403e-05
1.44507e-05
1.50104e-05
1.33121e-05
1.37898e-05
1.04081e-05
1.06068e-05
1.49301e-05
1.42245e-05
1.76104e-05
1.69752e-05
1.74366e-05
2.25873e-05
1.93701e-05
1.92642e-05
1.97237e-05
2.01863e-05
1.75506e-05
1.37051e-05
1.01267e-05
9.85475e-06
8.87276e-06
9.02343e-06
8.42685e-06
8.49712e-06
8.582e-06
8.47123e-06
8.29856e-06
8.36243e-06
8.67255e-06
8.58876e-06
1.29026e-05
1.34199e-05
1.10594e-05
1.14803e-05
1.01651e-05
9.87151e-06
9.86975e-06
9.86277e-06
9.47076e-06
9.65006e-06
1.08167e-05
1.08218e-05
1.06376e-05
1.05235e-05
1.18179e-05
1.15643e-05
4.56991e-05
4.48292e-05
3.46449e-05
3.28917e-05
2.31559e-05
2.20821e-05
2.8674e-05
2.73985e-05
3.14743e-05
3.00352e-05
2.84149e-05
2.6963e-05
3.09091e-05
3.25023e-05
2.7313e-05
2.89449e-05
2.49348e-05
2.65361e-05
2.05653e-05
1.95181e-05
2.25383e-05
2.37987e-05
1.82687e-05
1.79935e-05
1.94636e-05
1.87926e-05
1.70068e-05
1.78317e-05
1.53001e-05
1.45417e-05
1.54927e-05
1.5757e-05
1.21624e-05
1.21057e-05
1.39989e-05
1.44782e-05
1.50104e-05
1.5665e-05
1.68595e-05
1.7743e-05
1.88796e-05
1.98141e-05
0.000354608
0.000370034
0.000225644
0.000235512
0.000167186
0.000159709
0.000268966
0.000270227
0.000298991
0.000286014
0.000396987
0.000414437
0.000669095
0.000672838
0.000602033
0.000599931
0.000812936
0.000779031
0.00653569
0.00675105
0.00894057
0.00899253
0.00180338
0.00179621
0.00338859
0.00337992
1.48088e-05
1.5777e-05
9.35768e-06
9.47071e-06
2.52719e-05
2.5861e-05
1.57016e-05
1.66349e-05
1.67874e-05
1.56929e-05
2.22395e-05
2.10403e-05
0.00133071
0.00131551
0.00628658
0.00632552
9.26314e-05
9.33465e-05
7.19228e-05
7.41764e-05
7.1463e-05
6.9739e-05
6.146e-05
6.23573e-05
6.17449e-05
5.96718e-05
1.11546e-05
1.14244e-05
1.04484e-05
1.02348e-05
1.00346e-05
9.88263e-06
1.09615e-05
1.07226e-05
1.14063e-05
1.13398e-05
1.31674e-05
1.2725e-05
1.42359e-05
1.48432e-05
3.00127e-05
2.9887e-05
1.78853e-05
1.85144e-05
1.8361e-05
1.99623e-05
2.17425e-05
1.19218e-05
1.20061e-05
9.92835e-06
1.00415e-05
9.60154e-06
9.69323e-06
9.6266e-06
9.69263e-06
9.30116e-06
9.23154e-06
1.75402e-05
1.74778e-05
1.36719e-05
1.41554e-05
1.48641e-05
1.4803e-05
1.08107e-05
1.06141e-05
1.02188e-05
1.00492e-05
1.7111e-05
1.79245e-05
1.77734e-05
1.50641e-05
1.51321e-05
1.5566e-05
1.26403e-05
1.21963e-05
1.19716e-05
1.20794e-05
1.25087e-05
1.55336e-05
1.64805e-05
2.13096e-05
1.26036e-05
9.60724e-06
9.83454e-06
8.45966e-06
8.53045e-06
8.42734e-06
8.39937e-06
8.4447e-06
8.53905e-06
1.25016e-05
1.25167e-05
1.29927e-05
1.23798e-05
1.28889e-05
1.03707e-05
1.00814e-05
9.72836e-06
1.00056e-05
9.60522e-06
9.35914e-06
9.54476e-06
9.44764e-06
9.88114e-06
1.01361e-05
1.13802e-05
1.12605e-05
1.04668e-05
1.04677e-05
1.09984e-05
1.13538e-05
3.58369e-05
3.49354e-05
4.01092e-05
4.0903e-05
4.10736e-05
4.06898e-05
3.35272e-05
3.27125e-05
2.46752e-05
2.34093e-05
2.41212e-05
2.3041e-05
2.75965e-05
2.6322e-05
3.11652e-05
3.25991e-05
2.74907e-05
2.60373e-05
2.81532e-05
2.97811e-05
2.57087e-05
2.73265e-05
1.97987e-05
1.87627e-05
2.00851e-05
1.95892e-05
2.11769e-05
2.20592e-05
1.50124e-05
1.56213e-05
1.51014e-05
1.58778e-05
1.4695e-05
1.51322e-05
1.32098e-05
1.32971e-05
1.40435e-05
1.35094e-05
1.36529e-05
1.48485e-05
1.4115e-05
1.86745e-05
1.8748e-05
1.67303e-05
1.59431e-05
1.93863e-05
1.84503e-05
3.22405e-05
3.09946e-05
0.000354937
0.000355329
0.000255976
0.000267198
0.000249288
0.000247906
0.000145004
0.000151724
0.000190662
0.000182193
0.000211932
0.000202312
0.000729404
0.000763261
0.000477499
0.000479064
0.000449143
0.000447156
0.000580007
0.000557517
0.00057096
0.00054852
0.000712822
0.000684157
0.000710902
0.000741805
0.0024571
0.00235584
0.00616923
0.00594948
0.00717535
0.00738319
0.00885464
0.00890545
0.00909545
0.00914991
0.00188156
0.00188645
0.00970085
0.00962998
0.00968957
1.66026e-05
1.63084e-05
9.29906e-06
9.57642e-06
9.86604e-06
8.53577e-06
8.8173e-06
8.01553e-06
7.79287e-06
2.30182e-05
2.35058e-05
1.78516e-05
1.72168e-05
1.7139e-05
1.62481e-05
1.24263e-05
1.2783e-05
1.3153e-05
1.27507e-05
4.40402e-05
4.7567e-05
0.00239516
0.00249583
0.00152637
0.00150868
0.00213588
0.00211065
0.00453403
0.00450474
6.90634e-05
6.61852e-05
4.88228e-05
5.04816e-05
6.95638e-05
7.18553e-05
7.65546e-05
7.90715e-05
6.62376e-05
6.78108e-05
6.05977e-05
6.06553e-05
6.13216e-05
5.88572e-05
5.97437e-05
1.2859e-05
1.24648e-05
1.06301e-05
1.0835e-05
1.02957e-05
1.01553e-05
1.02325e-05
1.07365e-05
1.06041e-05
1.05118e-05
1.16337e-05
1.13994e-05
1.28126e-05
1.28985e-05
1.23252e-05
1.19409e-05
1.54994e-05
1.48933e-05
2.8135e-05
2.7906e-05
1.692e-05
1.75354e-05
1.92263e-05
1.77659e-05
1.23941e-05
1.25806e-05
9.87494e-06
9.7773e-06
9.87896e-06
9.90837e-06
9.62303e-06
9.73166e-06
9.33076e-06
9.41334e-06
1.61111e-05
1.60496e-05
1.46782e-05
1.52425e-05
1.23564e-05
1.19167e-05
1.08197e-05
1.10462e-05
1.00754e-05
9.91977e-06
1.60373e-05
1.52862e-05
1.53494e-05
2.34615e-05
2.45226e-05
2.28652e-05
1.73028e-05
1.77564e-05
1.94003e-05
1.9965e-05
2.04168e-05
2.18108e-05
1.23002e-05
1.16725e-05
1.51093e-05
1.43647e-05
8.58482e-06
8.45158e-06
8.65432e-06
8.74975e-06
8.58331e-06
8.67466e-06
8.45576e-06
8.38584e-06
1.12907e-05
1.14442e-05
1.19738e-05
1.06868e-05
1.03529e-05
9.64251e-06
9.90673e-06
9.17641e-06
9.19326e-06
9.88133e-06
9.6873e-06
1.12045e-05
1.12132e-05
1.10483e-05
1.08111e-05
4.33331e-05
4.42247e-05
4.40308e-05
4.33029e-05
3.89245e-05
3.93384e-05
3.08167e-05
3.16454e-05
2.66196e-05
2.22422e-05
2.11762e-05
2.62523e-05
2.73445e-05
3.04032e-05
2.89592e-05
2.5157e-05
2.66098e-05
2.34288e-05
2.2026e-05
1.73803e-05
1.71087e-05
2.32284e-05
2.41281e-05
1.97108e-05
2.03936e-05
1.71194e-05
1.77677e-05
1.50071e-05
1.44168e-05
1.53785e-05
1.5824e-05
1.46309e-05
1.45229e-05
1.17273e-05
1.16444e-05
1.16329e-05
1.16887e-05
1.31899e-05
1.352e-05
1.34305e-05
1.96534e-05
1.97204e-05
1.63978e-05
1.56044e-05
1.90589e-05
1.81225e-05
0.0003695
0.000369766
0.000370348
0.000370737
0.000279689
0.000279993
0.0002458
0.000246018
0.000143417
0.00013753
0.00015195
0.000145206
0.000191097
0.000182573
0.000255812
0.000267761
0.000273554
0.000272548
0.00041366
0.000414087
0.000498249
0.000499915
0.000394575
0.000392753
0.000864077
0.000901333
0.000615888
0.000618834
0.000643186
0.000669481
0.000550686
0.000528868
0.000566334
0.000544023
0.00083824
0.000874786
0.000703294
0.000674108
0.000746514
0.000715195
0.00116709
0.00117275
0.00619841
0.00622575
0.00742081
0.00721087
0.00880947
0.00885977
0.00813403
0.00790547
0.00320371
0.0033369
0.00188997
0.00180818
0.00340577
0.00339722
0.00430502
0.00429055
1.08364e-05
1.04019e-05
1.03219e-05
1.51039e-05
1.60809e-05
1.10317e-05
1.15654e-05
1.07232e-05
1.00281e-05
7.0581e-05
7.46436e-05
9.18147e-06
9.51877e-06
2.65184e-05
2.71286e-05
2.40371e-05
2.45947e-05
1.51658e-05
1.61479e-05
1.44155e-05
1.49574e-05
1.46319e-05
1.43359e-05
3.48612e-05
3.28271e-05
5.15871e-05
5.12843e-05
0.00432876
0.00443486
0.00124221
0.0012279
0.00157885
0.00159743
0.00149106
0.00147347
0.00529347
0.00525756
0.00375215
0.00371248
3.13865e-05
3.0045e-05
0.000143246
0.000142668
9.14307e-05
9.00344e-05
3.60146e-05
3.44723e-05
5.54335e-05
5.36412e-05
7.52191e-05
7.29852e-05
6.53026e-05
6.68946e-05
6.49919e-05
6.35064e-05
6.02674e-05
6.15474e-05
6.22267e-05
3.43473e-05
1.06807e-05
1.09186e-05
9.86183e-06
1.00096e-05
1.11093e-05
1.13194e-05
1.15312e-05
1.12303e-05
1.24772e-05
1.23987e-05
1.43506e-05
1.37995e-05
1.42149e-05
1.36335e-05
2.97484e-05
2.97217e-05
3.10917e-05
2.57877e-05
2.62932e-05
1.50788e-05
1.56307e-05
2.04741e-05
2.09684e-05
1.15886e-05
1.13349e-05
1.14188e-05
1.16026e-05
1.02789e-05
1.03667e-05
9.82035e-06
9.43345e-06
9.52462e-06
9.76321e-06
9.83229e-06
1.53631e-05
1.58962e-05
1.65009e-05
1.62614e-05
1.39326e-05
1.3454e-05
1.10755e-05
1.13762e-05
1.30163e-05
1.27593e-05
1.24464e-05
1.45873e-05
1.40257e-05
1.64232e-05
1.56172e-05
1.94864e-05
1.85482e-05
1.87139e-05
1.52137e-05
1.46622e-05
1.5436e-05
1.63309e-05
1.67036e-05
1.83368e-05
1.88466e-05
2.08944e-05
2.22788e-05
1.30067e-05
9.44903e-06
9.4912e-06
8.78032e-06
8.73338e-06
8.61473e-06
8.5332e-06
8.58493e-06
8.58265e-06
1.0656e-05
1.0529e-05
1.16874e-05
1.20501e-05
1.07482e-05
1.04157e-05
1.0055e-05
9.7932e-06
1.00324e-05
9.92614e-06
9.39275e-06
9.37873e-06
1.08732e-05
1.09905e-05
4.01251e-05
4.10721e-05
3.68822e-05
3.76223e-05
4.17507e-05
4.25091e-05
4.03821e-05
4.00978e-05
2.90289e-05
2.98451e-05
2.89961e-05
2.81678e-05
2.43293e-05
2.55994e-05
2.514e-05
2.40541e-05
2.49623e-05
2.3521e-05
2.08864e-05
2.11458e-05
2.28028e-05
2.35336e-05
1.85886e-05
1.79289e-05
1.77365e-05
1.85753e-05
1.50256e-05
1.47644e-05
1.61157e-05
1.65693e-05
1.38352e-05
1.39256e-05
1.21186e-05
1.22051e-05
1.26886e-05
1.26275e-05
1.271e-05
1.30436e-05
1.96857e-05
1.98167e-05
2.06826e-05
2.07366e-05
1.75659e-05
1.72364e-05
0.000354321
0.000354031
0.000292054
0.000292385
0.00026815
0.00025683
0.000189698
0.000181341
0.00023665
0.00023516
0.000134438
0.000133428
0.000138744
0.000138563
0.000158742
0.000166084
0.000174101
0.000173769
0.000212759
0.000203071
0.000263515
0.000251873
0.000732693
0.000764755
0.000396663
0.000396261
0.000376347
0.000393143
0.000372529
0.000370817
0.00042441
0.000422423
0.000451138
0.000738654
0.000706657
0.000675814
0.000646499
0.000612033
0.000640901
0.000667124
0.00055285
0.000530988
0.000526755
0.000524601
0.000574078
0.000571846
0.000597454
0.000624243
0.000815904
0.000782497
0.000708287
0.000679502
0.000751204
0.000719569
0.00113308
0.00108612
0.00093454
0.000931071
0.00595271
0.00616344
0.00566403
0.00588021
0.00699832
0.00696445
0.00845127
0.00859865
0.00889834
0.0089497
0.00842834
0.00860603
0.00319792
0.00333
0.00168348
0.00167985
0.0024795
0.00248068
0.00370931
0.00371975
0.00353045
0.00354041
0.00566795
0.00565856
0.00962036
0.00961663
1.14605e-05
1.08794e-05
1.392e-05
1.42436e-05
1.05957e-05
1.1005e-05
1.23673e-05
1.29082e-05
9.90305e-06
1.0086e-05
1.05368e-05
1.8399e-05
1.80507e-05
7.3987e-06
7.26521e-06
2.52352e-05
2.6325e-05
2.57957e-05
2.23147e-05
2.18377e-05
1.71781e-05
1.82093e-05
1.2085e-05
1.20963e-05
1.17876e-05
1.16186e-05
1.36847e-05
1.35909e-05
1.57187e-05
4.48719e-05
4.39462e-05
4.78824e-05
4.43613e-05
0.00219653
0.00217292
0.0049884
0.00502346
0.00210163
0.00211956
0.00143713
0.00142214
0.00165212
0.00167161
0.00514525
0.00510225
0.0038603
0.00390128
4.04953e-05
3.86184e-05
3.50816e-05
3.35894e-05
0.000136825
0.000137314
0.000122416
0.000117913
0.000104418
0.00010397
9.39197e-05
9.43445e-05
5.19223e-05
5.02726e-05
7.54462e-05
7.79797e-05
8.05898e-05
8.30079e-05
6.45975e-05
6.62056e-05
6.80917e-05
6.65153e-05
5.95139e-05
5.84745e-05
1.16469e-05
1.1966e-05
1.14306e-05
1.17449e-05
1.00925e-05
9.92518e-06
1.03279e-05
1.01604e-05
1.17186e-05
1.19756e-05
1.20877e-05
1.20161e-05
1.32942e-05
1.27794e-05
1.36569e-05
1.31563e-05
2.36319e-05
2.36949e-05
2.49236e-05
1.6409e-05
1.66622e-05
1.58271e-05
1.62763e-05
1.90607e-05
1.9663e-05
1.17046e-05
1.20813e-05
9.97615e-06
1.01641e-05
9.5617e-06
9.46272e-06
1.79382e-05
1.76935e-05
1.56137e-05
1.58495e-05
9.94083e-06
9.82059e-06
1.12355e-05
1.1016e-05
1.06104e-05
1.08305e-05
1.76705e-05
1.86808e-05
1.82018e-05
1.52562e-05
1.56173e-05
1.4012e-05
1.3541e-05
1.66769e-05
1.63061e-05
1.58885e-05
1.46013e-05
2.0076e-05
1.99665e-05
4.26647e-05
4.22966e-05
1.41145e-05
1.34896e-05
1.5657e-05
1.68818e-05
1.59761e-05
2.04128e-05
2.10692e-05
2.15561e-05
1.91961e-05
1.96546e-05
9.26431e-06
9.11902e-06
9.17002e-06
9.26959e-06
8.64615e-06
8.60614e-06
8.24063e-06
8.18759e-06
8.22785e-06
8.84096e-06
8.8483e-06
8.60109e-06
8.64173e-06
1.03137e-05
1.02014e-05
1.15974e-05
1.12603e-05
1.15158e-05
1.11201e-05
1.00779e-05
1.03905e-05
9.67331e-06
9.77518e-06
3.84604e-05
3.94366e-05
4.51864e-05
4.66415e-05
3.84052e-05
3.92375e-05
3.47875e-05
3.54858e-05
3.54234e-05
3.69047e-05
3.687e-05
3.6311e-05
3.05419e-05
3.11765e-05
2.96132e-05
2.99326e-05
2.52994e-05
2.65721e-05
2.01671e-05
1.9889e-05
2.24224e-05
2.171e-05
2.21734e-05
2.30652e-05
1.70003e-05
1.63639e-05
1.85164e-05
1.93677e-05
1.43479e-05
1.40896e-05
1.38339e-05
1.39185e-05
1.26391e-05
1.2727e-05
1.22492e-05
1.25837e-05
1.87018e-05
1.88302e-05
0.000120796
0.000120691
0.000305948
0.000305652
0.000313633
0.000327418
0.000255602
0.000266782
0.000225469
0.000235288
0.00018093
0.000189603
0.000315462
0.000316972
0.000190684
0.000199676
0.000147795
0.000148304
0.000169036
0.000160619
0.000152191
0.00014544
0.000192013
0.000183352
0.000166374
0.000158998
0.00017443
0.000213722
0.000203979
0.000222848
0.000199038
0.000208244
0.000249296
0.000260682
0.000893009
0.000932124
0.000834051
0.000798299
0.000560662
0.000561183
0.000429039
0.00042815
0.000335644
0.00033423
0.000344678
0.000329772
0.000459157
0.000461147
0.000406418
0.000404509
0.000482955
0.000480826
0.000765261
0.000798775
0.000643362
0.000639173
0.000535393
0.000533145
0.000596187
0.000620032
0.000546306
0.000568706
0.000504158
0.000502024
0.000627132
0.000629835
0.00077875
0.000812052
0.000733776
0.000738537
0.000652146
0.00068103
0.00085392
0.000818216
0.00190212
0.00198688
0.000986647
0.000946118
0.00101673
0.00102015
0.000937551
0.0027484
0.00286372
0.00774648
0.00750677
0.00610645
0.00589026
0.00754987
0.007336
0.00748786
0.00727486
0.00790279
0.00769804
0.00864169
0.00849263
0.00884827
0.00880708
0.0086747
0.00849302
0.00905878
0.00911262
0.00104025
0.000997416
0.00246249
0.00246767
0.00297446
0.00298137
0.00269933
0.00281817
0.00384929
0.00386259
0.00355009
0.0035595
0.00526391
0.00524865
0.00791473
0.00790699
0.00975318
0.00978853
3.25769e-05
3.21951e-05
1.53167e-05
1.45033e-05
1.49407e-05
1.31503e-05
1.34822e-05
1.25311e-05
1.27935e-05
1.30469e-05
1.14432e-05
8.98829e-06
2.56038e-05
2.65227e-05
1.28934e-05
1.34142e-05
7.54489e-06
7.48729e-06
9.87766e-06
9.51914e-06
2.46834e-05
2.4181e-05
1.6037e-05
1.53655e-05
1.91319e-05
1.8103e-05
1.18485e-05
1.23298e-05
1.17234e-05
1.26858e-05
1.23575e-05
1.22351e-05
1.27607e-05
1.87045e-05
1.78002e-05
1.77099e-05
6.64306e-05
6.67564e-05
3.62591e-05
3.42268e-05
0.000126848
0.00012053
0.000994966
0.000995669
0.00313823
0.00301372
0.00494214
0.00497688
0.00230393
0.00220995
0.00101749
0.00102649
0.00148929
0.001505
0.00142467
0.00140794
0.00186894
0.00184683
0.00247916
0.00245134
0.0062136
0.00625283
0.00436463
0.00431883
0.00707276
0.00722213
3.06904e-05
2.93658e-05
3.21721e-05
3.08181e-05
9.3082e-05
9.69138e-05
0.000110443
0.000115505
0.000107774
0.000109946
0.000106948
9.12389e-05
9.07779e-05
4.21032e-05
4.39792e-05
6.14234e-05
6.33205e-05
7.4269e-05
7.6816e-05
7.93238e-05
8.17843e-05
7.9277e-05
7.71719e-05
5.69112e-05
5.82685e-05
6.58518e-05
6.74322e-05
6.35255e-05
6.4953e-05
3.55812e-05
3.55313e-05
1.12874e-05
1.16039e-05
1.17216e-05
1.20946e-05
1.02039e-05
1.02775e-05
1.00066e-05
9.86602e-06
1.20693e-05
1.23495e-05
1.11168e-05
1.10526e-05
1.32214e-05
1.37095e-05
3.20073e-05
3.18057e-05
2.37399e-05
1.71913e-05
9.73346e-06
9.64721e-06
1.69542e-05
1.71966e-05
9.71201e-06
1.12865e-05
1.15452e-05
1.08558e-05
1.10873e-05
1.38194e-05
1.34911e-05
1.42644e-05
1.36105e-05
1.31927e-05
1.31919e-05
1.75507e-05
1.89302e-05
1.87203e-05
2.48113e-05
3.03786e-05
3.01233e-05
1.36245e-05
1.29705e-05
1.64525e-05
1.60044e-05
1.89469e-05
1.78814e-05
2.28885e-05
9.83426e-06
1.01504e-05
1.07668e-05
9.33227e-06
9.25379e-06
9.18449e-06
9.39523e-06
9.02394e-06
9.17483e-06
8.38284e-06
8.38509e-06
8.22569e-06
8.25231e-06
8.99764e-06
9.00974e-06
8.76741e-06
8.7229e-06
1.07398e-05
1.04917e-05
1.10336e-05
1.08918e-05
1.06975e-05
1.10584e-05
3.14847e-05
3.23361e-05
3.51266e-05
3.61554e-05
4.04725e-05
4.20817e-05
4.36601e-05
3.93704e-05
3.86848e-05
3.98473e-05
4.15311e-05
3.97943e-05
3.80972e-05
3.37734e-05
3.24471e-05
3.42936e-05
3.17432e-05
1.73689e-05
1.69071e-05
1.92014e-05
1.89227e-05
2.43501e-05
2.52542e-05
1.62849e-05
1.56615e-05
1.45124e-05
1.4593e-05
1.29688e-05
1.28133e-05
0.000137654
0.000142922
7.81886e-05
7.83266e-05
0.000613245
0.000587815
0.000183202
0.00017511
0.000183296
0.000191118
0.000291229
0.000290726
0.000225021
0.000234748
0.000256585
0.000267874
0.000245545
0.000156091
0.000150243
0.000290071
0.000288557
0.000304729
0.000318456
0.000186766
0.000179218
0.000144626
0.000138716
0.000139787
0.00014072
0.000139976
0.000140469
0.000132532
0.000126554
0.000138973
0.000174756
0.000175073
0.000166662
0.000159256
0.000214791
0.000205019
0.000221163
0.00022196
0.000302727
0.000289463
0.0002616
0.000250129
0.000827356
0.000862975
0.000797904
0.000833564
0.000581327
0.000604873
0.000559931
0.000348451
0.000348111
0.000475852
0.00049648
0.000389833
0.000391501
0.000361741
0.000363254
0.000356595
0.000354982
0.000400037
0.000398221
0.000426376
0.000408311
0.000462641
0.000460538
0.000484997
0.000878219
0.000841402
0.000704139
0.000736311
0.000555084
0.000577441
0.00067222
0.000646021
0.000573126
0.000575241
0.00053485
0.000513613
0.000549587
0.000547443
0.000575867
0.000842768
0.000879473
0.000716878
0.00068818
0.000742978
0.0006849
0.000655538
0.000864674
0.000828485
0.000784013
0.000985947
0.000984755
0.000990159
0.000949342
0.000981203
0.000983641
0.00102245
0.000978859
0.00234533
0.00244605
0.00472731
0.00475773
0.00721947
0.0071487
0.00733382
0.00613836
0.00592066
0.00609966
0.00631842
0.00678348
0.0065669
0.00706074
0.0070305
0.00793635
0.0077285
0.00868298
0.00853206
0.00876438
0.00872009
0.00778955
0.0080181
0.0086409
0.00846099
0.00896237
0.00909775
0.00134851
0.00140731
0.00154015
0.00160862
0.00255561
0.00256184
0.00224869
0.00225164
0.00183549
0.00176189
0.00259341
0.00259383
0.00295797
0.00295282
0.00379442
0.00364062
0.00387515
0.00388684
0.00413624
0.00412147
0.00523284
0.00521866
0.00952314
0.00954438
0.00974913
0.00975986
0.00978036
3.83273e-05
3.98719e-05
7.94055e-06
8.15175e-06
1.35036e-05
1.298e-05
1.36825e-05
1.54816e-05
1.35067e-05
1.33373e-05
1.13725e-05
1.21853e-05
1.27296e-05
1.21858e-05
7.0412e-05
7.4425e-05
1.69903e-05
1.73383e-05
9.36648e-06
9.73283e-06
7.69983e-06
7.68432e-06
7.35618e-06
7.23797e-06
7.93346e-06
7.80848e-06
9.17898e-06
9.33719e-06
2.2071e-05
2.08063e-05
1.66291e-05
1.59972e-05
1.92405e-05
1.97439e-05
2.02218e-05
1.2002e-05
1.266e-05
1.24795e-05
1.01557e-05
9.70239e-06
1.32222e-05
1.28963e-05
1.38995e-05
8.42946e-06
8.14953e-06
8.08801e-06
4.7458e-05
4.67105e-05
4.58276e-05
3.75251e-05
4.06949e-05
0.000208406
0.000206046
0.000333185
0.000334413
0.00148076
0.00146933
0.00333475
0.00320145
0.00316545
0.00304003
0.00489753
0.00493197
0.00414668
0.00428531
0.00219129
0.00228453
0.00101968
0.00100873
0.00155934
0.00157582
0.00159735
0.00161497
0.00136114
0.00134521
0.00185124
0.00187288
0.00204334
0.00201915
0.00490822
0.00485546
0.00604872
0.00614335
0.00643333
0.00647249
0.00407959
0.00403916
0.00438494
0.00434827
0.00560981
0.00577483
0.00775346
0.00780192
3.3579e-05
3.20898e-05
3.44661e-05
3.59585e-05
9.59412e-05
9.20881e-05
0.000116374
0.000111335
8.41941e-05
8.29286e-05
0.000105665
0.000106596
9.01741e-05
8.94375e-05
5.62787e-05
5.89722e-05
5.01944e-05
4.88608e-05
7.30373e-05
7.55974e-05
7.30502e-05
7.07767e-05
8.00214e-05
8.24605e-05
7.5172e-05
7.32725e-05
5.76486e-05
5.64712e-05
6.37484e-05
6.53757e-05
6.29101e-05
6.43451e-05
6.64574e-05
6.80303e-05
3.75393e-05
3.87485e-05
1.09422e-05
1.08344e-05
1.11189e-05
1.2033e-05
1.23847e-05
1.03926e-05
1.04874e-05
1.1865e-05
3.25315e-05
3.53527e-05
3.44105e-05
9.92939e-06
9.88918e-06
9.82556e-06
1.1618e-05
1.20142e-05
1.63041e-05
1.5721e-05
1.2129e-05
1.25988e-05
1.2824e-05
1.49366e-05
2.04902e-05
3.19943e-05
3.19325e-05
2.44426e-05
2.59166e-05
2.62063e-05
1.41117e-05
1.47393e-05
1.85072e-05
1.80453e-05
1.08699e-05
1.11705e-05
1.14206e-05
9.72079e-06
9.82336e-06
8.9459e-06
8.7466e-06
9.09589e-06
9.00606e-06
9.20141e-06
9.37459e-06
8.47638e-06
8.47811e-06
8.3368e-06
8.30992e-06
9.06763e-06
9.01661e-06
8.70343e-06
8.70756e-06
1.08564e-05
1.11361e-05
3.75401e-05
3.66713e-05
3.72387e-05
3.88524e-05
4.26754e-05
4.17573e-05
3.61758e-05
3.80473e-05
3.84545e-05
3.86871e-05
3.06587e-05
1.77514e-05
1.8222e-05
1.65426e-05
1.62746e-05
2.13788e-05
2.06826e-05
1.3203e-05
1.32761e-05
6.08191e-05
5.89436e-05
4.24449e-05
4.29158e-05
8.21569e-05
8.21045e-05
0.000537883
0.000537857
0.00054074
0.000540978
0.000172891
0.000165642
0.000225989
0.000235904
0.000236109
0.000226176
0.000158996
0.000152995
0.000318452
0.000318852
0.000279337
0.000291665
0.000245265
0.000244928
0.000256295
0.000267551
0.00015671
0.000150888
0.000277453
0.000275936
0.00030324
0.000301729
0.000230486
0.000220884
0.000147217
0.000141208
0.000145911
0.000139955
0.000141507
0.000135413
0.000159101
0.00016758
0.000132371
0.00013129
0.000139251
0.000139582
0.000126423
0.000132377
0.000182958
0.000191545
0.00022385
0.000224948
0.000209934
0.000200532
0.000288289
0.000301459
0.000262542
0.000250985
0.000890163
0.000929177
0.00090225
0.000941613
0.000797743
0.00083323
0.000584994
0.000585753
0.000493309
0.00049347
0.000363506
0.000363864
0.000390059
0.000407177
0.000368884
0.000370161
0.000374746
0.000373122
0.000332773
0.000331285
0.000320764
0.000319333
0.000478881
0.000480939
0.000434193
0.00043614
0.000428333
0.000430284
0.000390938
0.000389126
0.000486964
0.000488899
0.000443139
0.000441083
0.000728538
0.000699127
0.000838699
0.000875284
0.00070182
0.00073423
0.000544258
0.000542271
0.000591851
0.000615866
0.000644944
0.000671253
0.000664268
0.000638183
0.000537
0.000515712
0.000526332
0.000524207
0.000833436
0.000869821
0.000720464
0.000691667
0.000760745
0.000728884
0.000688898
0.000659012
0.000793872
0.000788968
0.00189817
0.00198304
0.00116717
0.00121716
0.00102835
0.00103231
0.00106762
0.00106724
0.000976123
0.000972663
0.00273003
0.00284463
0.00497815
0.00516928
0.00793896
0.00800596
0.00674016
0.00650516
0.00642385
0.00645362
0.0065789
0.00635824
0.00644204
0.00622345
0.0063481
0.00612701
0.00681496
0.00659787
0.00724424
0.0074559
0.00866469
0.00871405
0.00872268
0.00856981
0.00807448
0.0078432
0.0087074
0.00852428
0.00916482
0.00922051
0.00922904
0.00928596
0.00124124
0.00124203
0.00140844
0.0013496
0.00161275
0.00154474
0.00256743
0.00257275
0.00197419
0.00197426
0.00183307
0.00176159
0.00271159
0.00271398
0.0025905
0.00247983
0.00322795
0.00309035
0.0029475
0.00294202
0.00369833
0.00368686
0.00452266
0.00449085
0.00544885
0.00546075
0.00732311
0.00708091
0.00690392
0.00690709
0.00916718
0.00916454
0.00967646
4.14938e-05
4.3036e-05
2.98187e-05
3.13403e-05
8.4673e-06
8.74422e-06
1.68516e-05
1.67198e-05
1.17408e-05
1.24283e-05
1.41837e-05
1.45337e-05
1.08535e-05
1.06828e-05
1.03115e-05
1.03981e-05
1.18554e-05
1.14024e-05
8.97529e-06
8.5716e-06
3.40459e-05
3.48877e-05
2.89314e-05
2.82373e-05
1.6623e-05
1.60042e-05
1.31304e-05
1.38351e-05
9.51029e-06
9.15834e-06
7.85408e-06
7.87629e-06
7.89498e-06
7.80165e-06
7.33724e-06
7.23318e-06
8.05565e-06
8.2603e-06
7.3189e-06
7.40566e-06
8.84225e-06
8.9171e-06
1.89501e-05
1.97655e-05
1.94581e-05
1.66152e-05
1.86653e-05
1.76292e-05
1.46329e-05
1.37108e-05
1.18611e-05
1.14229e-05
1.10769e-05
1.06628e-05
1.03773e-05
1.10522e-05
1.71952e-05
1.67832e-05
1.79173e-05
1.07836e-05
1.07603e-05
1.43299e-05
1.40343e-05
5.05273e-05
4.89381e-05
4.87227e-05
4.727e-05
3.70168e-05
3.84482e-05
4.84313e-05
4.49361e-05
6.39259e-05
6.36619e-05
0.000122887
0.000118163
7.90827e-05
7.95463e-05
0.00141433
0.00135031
0.00126462
0.00120564
0.0023975
0.00229512
0.00237918
0.00248487
0.00446778
0.004361
0.00492651
0.00488079
0.00442089
0.00455159
0.00186227
0.00178526
0.00115844
0.00116738
0.00084305
0.000851948
0.00117202
0.00115907
0.00237563
0.00228888
0.00152061
0.00145198
0.0013771
0.00139311
0.00130037
0.00128523
0.00209683
0.0021207
0.00179015
0.00176954
0.00195441
0.00193125
0.00289035
0.00285748
0.00466362
0.00461735
0.00621672
0.00612253
0.00379565
0.00383216
0.00392819
0.00388795
0.00423238
0.00419283
0.00457755