/*--------------------------------*- C++ -*----------------------------------*\
  =========                 |
  \\      /  F ield         | OpenFOAM: The Open Source CFD Toolbox
   \\    /   O peration     | Website:  https://openfoam.org
    \\  /    A nd           | Version:  7
     \\/     M anipulation  |
\*---------------------------------------------------------------------------*/
FoamFile
{
    version     2.0;
    format      ascii;
    class       volScalarField;
    location    "0.09";
    object      p;
}
// * * * * * * * * * * * * * * * * * * * * * * * * * * * * * * * * * * * * * //

dimensions      [0 2 -2 0 0 0 0];

internalField   nonuniform List<scalar> 
238806
(
6.59959e-07
6.56076e-07
-6.90964e-08
8.95534e-08
1.82635e-09
5.92701e-07
6.00907e-07
6.86364e-07
7.59407e-07
1.402e-07
1.62303e-07
2.27481e-07
6.76579e-08
6.35626e-08
-1.0219e-07
-1.17214e-07
1.1413e-07
7.36269e-08
2.12033e-06
2.13736e-06
8.60019e-08
7.60886e-08
-1.00872e-07
-6.85988e-08
-3.99808e-08
7.56975e-08
1.82759e-08
7.02342e-08
-2.26468e-08
-1.12551e-07
1.88912e-06
2.0981e-06
4.33346e-08
6.4928e-08
1.2803e-07
1.42766e-07
3.4286e-10
3.04152e-10
1.17012e-07
2.44546e-07
1.88872e-07
-3.11842e-08
2.34729e-06
2.5812e-06
1.90891e-06
1.88981e-06
-5.23066e-08
-3.70144e-08
8.68201e-08
1.08269e-07
2.61694e-07
2.7227e-07
7.48617e-08
7.0198e-08
-1.5675e-10
-1.59627e-10
1.50704e-07
4.42301e-08
1.37326e-07
2.13834e-07
1.56808e-07
3.10617e-07
1.8681e-07
2.53817e-07
2.95111e-07
1.70212e-06
1.70363e-06
8.65043e-07
7.75743e-07
4.32236e-07
3.84203e-07
5.88954e-08
3.99776e-08
1.0529e-07
8.38641e-08
1.97123e-07
1.82813e-07
1.27633e-07
1.42166e-07
1.01248e-09
1.01052e-09
5.97767e-08
8.83427e-08
1.02625e-06
1.08329e-06
3.76199e-07
3.3637e-07
2.39251e-08
-5.47348e-08
6.23881e-08
2.5076e-08
3.11383e-07
1.98767e-07
1.95167e-06
1.89962e-06
2.49276e-07
2.76884e-07
1.42692e-07
1.07257e-07
-1.93704e-08
1.68058e-06
8.74267e-07
8.24507e-07
7.38249e-07
7.4109e-07
3.08667e-08
2.44334e-08
9.08129e-08
7.36754e-08
6.23342e-08
4.1259e-08
1.89284e-07
2.116e-07
2.42865e-07
2.32859e-07
7.10652e-08
7.86372e-08
2.86631e-10
3.14242e-10
1.8393e-10
-1.33381e-07
-1.27646e-07
8.47672e-07
7.99511e-07
6.61548e-07
6.70121e-07
-1.27634e-07
-1.48886e-07
-3.40612e-09
-6.61921e-10
2.54554e-07
-9.98881e-09
4.30026e-08
-4.42598e-08
1.14416e-07
2.61322e-07
1.7937e-06
2.01282e-06
-2.46956e-07
-7.65455e-08
-1.28707e-07
-7.87072e-08
1.81246e-07
1.24134e-06
9.95597e-07
1.11188e-06
1.05157e-06
7.34739e-07
7.77243e-07
5.16286e-07
4.81304e-07
3.25939e-07
3.0556e-07
2.06466e-08
1.18996e-08
7.12365e-08
5.92014e-08
5.64354e-08
3.94387e-08
7.82441e-08
6.95415e-08
1.77496e-07
1.65973e-07
2.71629e-07
2.61082e-07
1.23907e-07
1.38396e-07
1.2731e-09
1.27145e-09
3.40244e-10
3.02878e-10
5.44835e-08
7.90765e-08
-5.17757e-08
-4.03113e-08
-2.18041e-08
9.54671e-07
9.00603e-07
2.94038e-07
2.80891e-07
-1.13632e-07
-1.39394e-07
-7.07024e-08
6.67513e-08
-1.62243e-08
3.70716e-08
9.99175e-07
9.1467e-07
2.17476e-06
2.43483e-06
2.32871e-06
2.56796e-06
9.78628e-07
8.16048e-07
1.39227e-07
-1.16472e-09
1.45785e-07
-4.69558e-08
-6.41757e-08
6.99941e-10
-7.04823e-08
2.03287e-06
2.08439e-06
1.10805e-06
1.04804e-06
9.76327e-07
8.65547e-07
3.28063e-07
2.92796e-07
4.28238e-07
4.6056e-07
-6.06253e-08
-6.72817e-08
4.02945e-09
-3.46777e-09
9.48624e-09
2.27707e-08
1.34513e-08
2.77463e-08
7.82713e-08
9.76367e-08
1.88704e-07
1.71342e-07
2.08241e-07
2.45034e-07
2.35342e-07
2.43207e-07
1.2681e-07
1.41498e-07
2.89775e-09
3.12745e-09
8.31679e-10
8.54211e-10
2.67355e-10
2.44623e-10
4.05199e-10
3.98634e-10
3.50488e-07
4.02438e-07
3.52292e-08
1.0183e-07
-1.30911e-07
-1.41456e-07
-5.15717e-09
-4.4315e-09
7.48694e-07
7.05227e-07
3.49393e-07
3.66291e-07
2.90837e-07
2.64888e-07
1.38439e-07
1.50149e-07
2.76485e-09
6.12258e-09
4.94026e-08
1.1035e-07
1.86161e-06
2.20356e-06
2.08128e-06
2.35716e-06
1.88537e-06
2.1018e-06
1.81316e-07
1.83273e-07
8.14691e-07
9.07414e-07
1.8724e-07
2.13905e-07
-1.62482e-08
-3.26658e-08
2.398e-07
-5.78294e-08
-2.40443e-09
1.75894e-07
1.23823e-07
1.84946e-06
1.78742e-06
1.40772e-06
1.33086e-06
9.3287e-07
9.86767e-07
5.73422e-07
6.13013e-07
5.77202e-07
5.81398e-07
4.45679e-07
4.31015e-07
-1.57509e-08
-1.27197e-08
-4.55312e-08
-5.51296e-08
4.87856e-09
-1.96059e-09
4.23254e-10
-9.56951e-09
2.26391e-08
5.88449e-09
2.14828e-08
7.20651e-10
5.29389e-08
3.76295e-08
6.78602e-08
6.89773e-08
1.36944e-07
1.18179e-07
1.93833e-07
1.86974e-07
2.19088e-07
2.00201e-07
7.37042e-08
7.55486e-08
1.11176e-07
1.13865e-07
1.04415e-07
9.43275e-08
1.04555e-09
1.02009e-09
2.03207e-09
2.16678e-09
9.28068e-10
8.76113e-10
9.66628e-10
9.7081e-10
1.64874e-10
1.50209e-10
4.05461e-10
4.1211e-10
3.0441e-10
5.00777e-08
7.57726e-08
-1.0851e-07
-1.04863e-07
-2.18297e-10
-2.18917e-10
3.25373e-08
3.52708e-08
-3.58599e-08
-2.76904e-08
7.01523e-07
6.5685e-07
7.34523e-07
7.30765e-07
3.1202e-07
3.27389e-07
2.53928e-07
2.42309e-07
-2.29899e-07
-6.75142e-08
-1.15504e-07
-6.15785e-08
4.32059e-07
5.67886e-07
1.31688e-06
1.99126e-06
1.4568e-06
1.21303e-06
1.15083e-06
2.12434e-06
1.9115e-06
2.22023e-07
2.24683e-07
4.21669e-07
5.29304e-07
5.99306e-07
8.25353e-07
-2.21361e-07
-3.61621e-08
-8.29529e-08
3.01546e-07
3.04024e-07
2.08642e-08
8.24482e-08
1.98836e-07
-2.33084e-08
2.28507e-07
5.97076e-08
7.58011e-07
6.68442e-07
1.82463e-06
1.95211e-06
1.35773e-06
1.34817e-06
1.39489e-06
1.24355e-06
1.22767e-06
1.06494e-06
1.9052e-07
1.82658e-07
2.57039e-07
2.88384e-07
6.54125e-07
6.44199e-07
7.16757e-07
6.8882e-07
4.56137e-07
4.54153e-07
4.09718e-07
3.82342e-07
2.8118e-07
2.53484e-07
-6.28215e-08
-5.61144e-08
4.01538e-08
4.6991e-08
5.20189e-09
-9.59949e-10
2.38328e-09
-6.89222e-09
-7.17963e-09
-2.06771e-08
-2.13088e-08
-3.88854e-08
5.00633e-08
3.63353e-08
7.50483e-08
7.90344e-08
1.249e-07
1.08532e-07
2.08583e-07
2.16918e-07
1.36249e-07
1.38157e-07
1.03473e-07
1.14829e-07
1.00006e-07
1.0245e-07
1.15594e-07
1.12655e-09
1.10404e-09
2.94587e-09
3.17942e-09
1.65397e-09
1.55385e-09
1.55422e-09
1.64788e-09
8.43374e-10
8.1528e-10
5.08834e-10
5.47581e-10
1.79265e-10
1.62171e-10
2.95722e-10
2.89125e-10
8.18243e-10
8.40082e-10
3.45781e-08
1.78819e-07
3.72506e-08
-3.00887e-08
-2.41778e-08
-2.09835e-07
-1.26418e-07
-1.56787e-07
-1.29272e-07
-1.49875e-10
-1.56088e-10
1.54899e-09
1.74053e-09
-3.68283e-08
-3.39582e-08
-3.27552e-08
-3.48401e-08
-1.21495e-07
-1.39401e-07
6.97061e-07
8.47327e-07
6.3638e-07
6.22272e-07
4.22574e-07
4.30152e-07
3.26723e-07
1.6541e-07
1.34116e-07
1.99068e-07
-5.32898e-09
-1.15149e-07
-2.3726e-08
-7.57052e-08
1.20166e-06
2.11469e-06
1.74529e-06
1.72988e-06
1.64955e-06
1.63492e-06
1.59252e-06
2.29291e-06
2.53624e-06
1.48737e-07
1.50224e-07
2.16219e-07
1.95647e-07
2.72831e-07
2.46073e-07
8.52077e-07
7.51984e-07
1.56071e-07
1.77677e-07
9.06364e-08
1.99955e-08
2.9745e-08
-5.45028e-08
-2.37434e-07
-8.62353e-08
-1.37249e-07
-8.25016e-08
-1.52035e-08
9.31915e-08
5.44444e-07
5.87606e-07
1.1964e-06
1.15431e-06
1.63758e-06
1.572e-06
1.32352e-06
1.48706e-06
1.77569e-06
1.69202e-06
1.183e-06
1.25031e-06
2.1557e-07
2.14059e-07
3.64286e-07
3.24011e-07
4.78858e-07
5.44724e-07
5.12052e-07
5.149e-07
6.48868e-07
5.87381e-07
3.57755e-07
3.58446e-07
3.84003e-07
3.96347e-07
2.75047e-07
2.92397e-07
-3.93198e-08
-4.38093e-08
-1.19981e-07
-9.7525e-08
5.08024e-08
6.03391e-08
2.60449e-08
3.31845e-08
1.18386e-08
1.89453e-08
1.18146e-08
2.14998e-08
3.41757e-09
-4.83298e-09
-3.42742e-09
-1.58729e-08
-1.57511e-08
-3.14188e-08
6.38806e-08
7.73723e-08
4.69327e-08
3.47312e-08
9.95447e-08
1.02188e-07
8.6345e-08
9.37114e-08
1.13564e-07
9.91857e-08
1.43556e-07
1.66765e-07
1.39718e-07
1.3556e-07
2.47716e-07
2.51459e-07
1.63187e-07
1.71211e-07
1.34943e-07
1.27137e-07
1.15068e-07
1.03597e-07
8.54577e-08
7.72798e-08
1.5131e-09
1.49736e-09
1.00771e-09
1.03475e-09
2.0643e-09
2.19418e-09
1.20864e-09
1.20986e-09
9.02436e-10
9.55436e-10
1.07865e-09
1.05901e-09
5.98939e-10
5.50325e-10
2.77232e-10
2.90865e-10
1.79068e-10
1.95921e-10
2.19063e-10
2.23069e-10
3.50549e-10
3.09356e-10
5.83708e-10
5.21293e-10
4.24833e-10
4.19982e-10
-6.48448e-08
-2.9363e-08
3.6026e-07
2.08206e-07
-4.86805e-08
-4.5932e-08
2.89356e-08
6.42923e-09
-2.44122e-08
-9.00673e-11
-1.09456e-07
-9.96509e-08
-1.35549e-10
-1.38513e-10
-1.08394e-11
2.02671e-11
-2.55948e-09
-2.9856e-09
-5.82937e-09
-5.05638e-09
-1.67734e-08
-1.87175e-08
-3.39003e-08
-4.26666e-08
-2.09577e-08
-4.06055e-08
5.75729e-07
4.6548e-07
8.26764e-07
9.5121e-07
9.86974e-07
1.085e-06
5.78131e-07
6.47713e-07
4.72283e-07
4.82448e-07
3.02267e-07
3.32681e-07
2.33898e-07
2.32836e-07
-1.0215e-07
-1.28523e-07
9.50132e-08
8.69729e-08
3.41893e-08
9.14007e-09
-2.20696e-08
2.48716e-07
1.5867e-07
1.16412e-06
1.08949e-06
1.89235e-06
1.49708e-06
1.46579e-06
1.41386e-06
2.23986e-06
2.48626e-06
1.34941e-07
1.36239e-07
2.54057e-07
2.301e-07
2.00612e-07
2.02839e-07
6.58364e-07
7.27531e-07
9.48643e-07
1.08849e-06
-1.37844e-08
3.1895e-08
-1.36785e-07
9.72568e-09
9.77718e-08
9.45954e-08
2.06928e-07
-2.16192e-08
3.06988e-07
2.89323e-07
2.4353e-07
6.3479e-08
7.5797e-09
-9.41381e-08
1.04778e-08
6.72634e-07
6.14627e-07
1.69554e-06
1.55384e-06
1.5138e-06
1.52204e-06
1.58199e-06
1.40711e-06
2.59224e-07
1.75738e-07
2.5575e-07
2.63005e-07
2.25343e-07
4.73865e-07
5.30158e-07
5.65274e-07
4.98574e-07
6.24448e-07
7.29046e-07
6.13603e-07
6.36933e-07
4.89604e-07
5.23877e-07
3.05033e-07
3.13519e-07
4.03204e-07
4.0446e-07
3.50829e-07
3.14065e-07
-2.02529e-08
-2.40349e-08
-4.46365e-08
-3.9481e-08
-8.3659e-08
-9.34307e-08
-5.77313e-08
-6.57336e-08
3.27842e-08
4.38451e-08
4.70015e-08
5.54998e-08
2.76645e-08
3.56225e-08
1.79806e-08
1.15247e-08
1.09179e-08
2.17631e-08
-1.01871e-09
-1.22016e-08
-1.02709e-08
-2.528e-08
6.84881e-08
8.3783e-08
8.24693e-08
8.69045e-08
7.13332e-08
6.36119e-08
1.53821e-07
1.40303e-07
1.51333e-07
1.29752e-07
1.59903e-07
1.50208e-07
1.99615e-07
1.98222e-07
2.24296e-07
1.67438e-07
1.6375e-07
1.51603e-07
1.75769e-07
9.34927e-08
9.34991e-08
1.12695e-07
1.25286e-07
8.25597e-08
9.15032e-08
2.1411e-08
2.28079e-08
1.50945e-09
1.507e-09
1.05197e-09
1.05905e-09
1.3198e-09
1.33479e-09
2.29731e-09
2.1415e-09
1.60358e-09
1.70758e-09
1.56371e-09
1.6608e-09
8.51219e-10
8.00833e-10
7.82767e-10
7.92072e-10
5.92658e-10
5.70947e-10
6.13284e-10
6.44671e-10
5.529e-10
5.8865e-10
3.20257e-10
3.36631e-10
2.21365e-10
2.01688e-10
2.48535e-10
2.51983e-10
2.80917e-10
2.82095e-10
2.30263e-10
2.3424e-10
3.4704e-10
3.06736e-10
3.54945e-10
3.13751e-10
6.19824e-10
5.8819e-10
3.11118e-10
1.46397e-10
2.61371e-10
-1.56192e-08
-1.95162e-08
3.98294e-07
2.41672e-07
4.30455e-07
4.36585e-07
3.85945e-07
4.48111e-07
6.59135e-07
-5.45317e-08
-4.83118e-08
2.26106e-08
4.0281e-08
9.80033e-09
2.88161e-08
-6.44765e-08
-9.38581e-08
-2.61089e-08
-4.03438e-08
6.82469e-09
5.5176e-09
-5.88224e-11
-5.39369e-11
-1.40958e-10
-1.44311e-10
-1.62932e-10
-1.66347e-10
-8.00695e-11
1.68017e-11
8.78657e-09
9.4303e-09
1.08387e-09
1.34984e-09
-3.36402e-09
-2.82987e-09
-4.3373e-09
-3.68714e-09
-2.20952e-08
-1.9912e-08
-3.79854e-08
-1.91515e-08
-4.26501e-08
-4.02785e-08
-3.4428e-08
2.99928e-07
3.54747e-07
7.0919e-07
5.00593e-07
8.16422e-07
9.70217e-07
7.34871e-07
6.4792e-07
6.83041e-07
7.17243e-07
4.65336e-07
4.93674e-07
3.07967e-07
3.03182e-07
3.77639e-07
4.23914e-07
1.83899e-07
1.90165e-07
-7.07478e-08
-7.79716e-08
1.20555e-07
1.15264e-07
7.20981e-09
7.21968e-08
2.30675e-07
1.30194e-07
1.2573e-06
1.34228e-06
1.11972e-06
1.10215e-06
1.39037e-06
1.22248e-06
2.06431e-06
1.84333e-06
1.64185e-07
1.65848e-07
2.08149e-07
1.8862e-07
3.18328e-07
4.19022e-07
6.6622e-07
6.01498e-07
1.01161e-06
1.11423e-06
1.1454e-07
9.98014e-08
-7.85715e-08
-9.75382e-08
-7.79552e-08
-1.49713e-07
7.19088e-08
6.48953e-08
2.15447e-08
2.06913e-09
-8.00292e-08
-7.06767e-08
2.2624e-07
1.87782e-07
-5.02382e-08
2.03989e-09
1.39661e-06
1.67962e-06
1.28298e-06
1.23051e-06
1.47003e-06
1.30044e-06
1.50237e-06
1.58373e-06
3.14545e-07
3.07062e-07
3.02595e-07
4.14263e-07
4.66438e-07
5.77427e-07
5.10489e-07
7.42349e-07
7.34589e-07
5.60059e-07
5.84198e-07
3.18079e-07
3.18575e-07
3.42794e-07
3.66085e-07
-3.96289e-08
-3.53773e-08
-4.89123e-08
-5.43697e-08
-9.10738e-08
-7.92735e-08
-5.27479e-08
-4.54564e-08
-6.52553e-08
5.48675e-08
6.56108e-08
4.3211e-08
3.71337e-08
1.17787e-08
1.9718e-08
2.25884e-08
1.05859e-08
2.12693e-09
2.13015e-08
1.10215e-07
1.13264e-07
5.9675e-08
5.35061e-08
8.49926e-08
7.84852e-08
1.14009e-07
1.04592e-07
1.54553e-07
1.69869e-07
1.43923e-07
1.35724e-07
1.55798e-07
1.58389e-07
2.798e-07
2.83273e-07
2.827e-07
2.78603e-07
1.99645e-07
1.8527e-07
1.83463e-07
8.45234e-08
8.46554e-08
1.19603e-07
1.33937e-07
8.6937e-08
9.64443e-08
1.50916e-09
1.50257e-09
1.49394e-09
1.49144e-09
1.0829e-09
1.09611e-09
1.05369e-09
1.0663e-09
2.22945e-09
2.3432e-09
2.21793e-09
2.38058e-09
1.64846e-09
1.75294e-09
1.2671e-09
1.20229e-09
1.01267e-09
9.83371e-10
1.0221e-09
1.04064e-09
7.5314e-10
7.63412e-10
7.06417e-10
6.85962e-10
3.55523e-10
3.40567e-10
5.93629e-10
6.12107e-10
4.56506e-10
4.30111e-10
5.9823e-10
6.33173e-10
5.26836e-10
5.61071e-10
2.4379e-10
2.27748e-10
2.9718e-10
3.07061e-10
2.17651e-10
2.35435e-10
2.22053e-10
2.31634e-10
2.87568e-10
2.94016e-10
2.39855e-10
2.36088e-10
3.45163e-10
3.05456e-10
2.98524e-10
2.97075e-10
4.99627e-10
4.89391e-10
5.88922e-10
6.01364e-10
4.34692e-10
4.30976e-10
3.63089e-10
3.56541e-10
2.65499e-07
2.24978e-07
2.04594e-07
-2.96613e-08
-4.29832e-08
1.73214e-07
6.295e-08
1.23902e-07
3.28748e-08
3.70508e-09
3.27241e-09
3.37828e-07
3.06641e-07
-5.70283e-08
-5.62763e-08
-4.0584e-08
-3.58432e-08
2.75709e-08
2.23502e-09
-2.40136e-07
-7.10393e-08
-1.18464e-07
-8.96762e-08
6.82032e-09
7.48595e-09
4.19124e-09
4.42556e-09
-4.04991e-10
-4.15959e-10
-1.45505e-10
-1.47004e-10
-1.45013e-10
-1.41371e-10
-1.48392e-10
-1.52573e-10
-1.20951e-10
-3.51877e-11
-2.69929e-11
-3.47564e-11
3.92157e-08
4.28762e-08
1.47746e-09
1.65117e-09
1.69586e-09
2.60481e-09
2.98136e-08
3.25335e-08
-5.53051e-10
-9.76778e-10
-5.98475e-09
-6.87212e-09
-2.00795e-08
-1.8111e-08
-2.53022e-08
-2.67939e-08
-3.21602e-08
-2.76781e-08
-3.34449e-08
-1.11229e-07
7.43035e-07
6.47402e-07
1.10366e-06
9.72187e-07
5.58475e-07
5.30514e-07
4.58997e-07
5.14852e-07
3.37948e-07
3.4339e-07
2.4337e-07
2.07665e-07
2.16379e-07
2.59202e-07
-1.1519e-07
-7.47883e-08
-6.85231e-08
-6.41715e-08
-5.05848e-08
1.39823e-07
1.17227e-07
1.68432e-08
2.63527e-08
6.72445e-07
3.81336e-07
5.18185e-07
3.73159e-07
8.50416e-07
7.38741e-07
1.31797e-06
1.70104e-06
1.5062e-06
1.25286e-06
1.21591e-06
1.85159e-07
1.69439e-07
1.5504e-07
1.60451e-07
2.39382e-07
2.64875e-07
5.89233e-07
4.87416e-07
4.02068e-07
2.87908e-07
3.85274e-07
1.89709e-07
1.02349e-07
5.25381e-08
8.13852e-08
-2.09386e-09
5.67737e-08
-1.10229e-07
8.40239e-08
1.78292e-07
1.56382e-07
1.15936e-07
8.20339e-08
4.13571e-08
3.87838e-08
-5.95085e-08
-5.80934e-08
1.17723e-07
5.70305e-07
4.76211e-07
1.06086e-06
1.06904e-06
1.36847e-06
1.44027e-06
1.20881e-06
1.20395e-06
3.89184e-07
3.99968e-07
3.03231e-07
2.97841e-07
4.05547e-07
4.64758e-07
5.26646e-07
5.7744e-07
4.84914e-07
5.02078e-07
6.51408e-07
6.57062e-07
3.51996e-07
3.41476e-07
-2.96171e-08
-2.59878e-08
-5.08621e-08
-4.41892e-08
-4.98561e-08
-4.45146e-08
-1.04306e-07
-1.13661e-07
-3.96801e-08
-3.33092e-08
-7.69541e-08
-7.47115e-08
4.10693e-08
3.12623e-08
4.34527e-08
5.11135e-08
7.38535e-09
2.24562e-08
7.64861e-08
7.71047e-08
6.40845e-08
5.94186e-08
9.52401e-08
1.03575e-07
1.03398e-07
9.08498e-08
1.50744e-07
1.55619e-07
1.2968e-07
1.22471e-07
1.77175e-07
1.76564e-07
2.52131e-07
2.49363e-07
2.19697e-07
2.23764e-07
2.21594e-07
2.04966e-07
8.35025e-08
8.14832e-08
7.64817e-08
7.65334e-08
1.01328e-07
1.07161e-07
1.51893e-09
1.52656e-09
1.08295e-09
1.09672e-09
1.0911e-09
1.08092e-09
8.21844e-10
7.55875e-10
1.25469e-09
1.28962e-09
2.76653e-09
2.8478e-09
2.55964e-09
2.46819e-09
2.00083e-09
1.8761e-09
1.81921e-09
1.761e-09
1.57978e-09
1.67573e-09
1.13193e-09
1.19677e-09
7.63531e-10
7.51416e-10
1.05959e-09
1.0407e-09
8.98934e-10
8.6266e-10
6.77045e-10
6.5391e-10
5.61188e-10
5.39968e-10
6.14126e-10
5.27193e-10
5.46029e-10
5.63418e-10
5.86357e-10
5.34721e-10
4.36633e-10
4.09774e-10
6.1815e-10
6.50797e-10
6.23723e-10
6.05564e-10
3.23656e-10
3.15673e-10
2.90993e-10
2.75488e-10
2.97842e-10
3.14738e-10
3.06869e-10
3.19524e-10
2.2997e-10
2.47466e-10
3.54893e-10
3.71472e-10
2.84525e-10
2.72216e-10
9.72583e-11
1.13054e-10
2.03368e-10
2.01749e-10
2.3313e-10
2.2682e-10
2.79283e-10
2.83991e-10
3.48998e-10
3.08063e-10
2.89314e-10
2.93548e-10
4.98671e-10
4.88718e-10
5.33231e-10
5.22265e-10
4.81794e-10
4.75253e-10
4.16956e-10
4.20879e-10
4.13217e-10
4.17874e-10
3.4072e-10
3.36282e-10
2.45734e-10
2.21379e-10
1.56814e-07
1.8584e-07
-1.71417e-10
8.6369e-09
1.45384e-07
1.63619e-07
1.4989e-08
-2.30448e-08
1.02637e-07
1.51665e-08
1.47553e-07
6.01329e-08
6.40129e-08
9.70073e-07
1.11572e-06
-7.1509e-08
-5.92488e-08
-8.96884e-08
-3.63593e-08
-4.30855e-08
-1.85088e-08
-3.77629e-08
1.71691e-07
-1.36304e-08
1.0399e-07
-2.42255e-08
-3.51061e-08
-8.48834e-08
-7.8599e-08
-1.87215e-08
-1.33828e-08
5.2498e-09
6.52627e-09
-2.04815e-10
-2.0908e-10
-3.92668e-10
-3.59772e-10
3.33569e-11
4.4804e-11
-1.15511e-10
-1.19553e-10
-1.52419e-10
-1.48983e-10
-9.2515e-11
-6.69707e-11
-3.25532e-11
-2.47201e-11
2.56517e-08
2.79715e-08
3.07103e-08
3.3477e-08
1.67409e-09
1.60974e-09
-7.44017e-10
-1.0178e-09
-2.17133e-09
-2.94987e-09
-3.40574e-09
-3.7296e-09
-1.41681e-09
-1.94345e-09
-3.23992e-09
-2.7033e-09
-8.02087e-09
-7.01324e-09
-1.88343e-08
-1.69688e-08
-2.09385e-08
-2.33052e-08
-3.57072e-08
-3.80147e-08
4.54906e-07
4.21718e-07
5.07642e-07
4.17902e-07
9.91299e-07
1.12901e-06
8.01335e-07
8.94308e-07
4.39291e-07
4.12456e-07
3.77706e-07
3.83832e-07
2.95763e-07
3.29846e-07
2.62595e-07
2.96874e-07
-6.19843e-08
-2.60353e-08
1.44906e-08
4.51444e-08
9.03918e-08
1.53996e-07
1.50539e-07
5.03418e-08
5.55165e-08
3.79354e-07
3.30479e-07
1.14861e-06
9.87696e-07
1.45706e-06
1.67225e-06
1.2784e-07
1.32062e-07
1.7702e-07
1.70858e-07
1.03656e-06
1.14536e-06
5.32235e-07
6.02393e-07
8.06568e-07
6.70494e-07
6.89136e-08
7.19677e-08
-1.69419e-08
1.4992e-07
1.02151e-07
2.51081e-07
1.90932e-07
8.07427e-08
6.22189e-09
1.14397e-07
1.09998e-07
-5.77369e-08
-8.43996e-08
-8.68448e-08
-9.61111e-08
1.63885e-07
1.9509e-07
9.17682e-08
6.53518e-08
8.60439e-08
8.0505e-09
-5.10771e-08
-7.42203e-09
-3.33374e-08
-2.83203e-08
1.21154e-06
8.56155e-07
9.48853e-07
7.79106e-07
1.19344e-06
1.20512e-06
1.84649e-06
2.12047e-06
1.80403e-06
9.49047e-07
9.50947e-07
1.18867e-06
1.15781e-06
4.39868e-07
4.51472e-07
2.88501e-07
3.21204e-07
3.28841e-07
3.64341e-07
5.09539e-07
4.5e-07
5.64856e-07
5.44444e-07
-2.37703e-08
-2.05641e-08
-3.14871e-08
-3.51881e-08
-3.856e-08
-3.37536e-08
-7.65385e-08
-6.9224e-08
-9.47774e-08
-1.24478e-07
-1.03119e-07
-1.10545e-07
-1.08035e-07
-7.19758e-08
-8.6857e-08
-5.76295e-08
3.82986e-08
2.94496e-08
8.2941e-08
8.42405e-08
6.5245e-08
7.02332e-08
6.53757e-08
5.84333e-08
1.1538e-07
1.2602e-07
9.41093e-08
8.3009e-08
1.67875e-07
1.73598e-07
1.78245e-07
1.77163e-07
2.24582e-07
2.22342e-07
2.45717e-07
2.27377e-07
9.24184e-08
9.01736e-08
3.20375e-09
3.08681e-09
1.13714e-09
1.11538e-09
1.03745e-09
1.01927e-09
1.05527e-09
1.05979e-09
1.00104e-09
1.02672e-09
7.34846e-10
7.95788e-10
1.0544e-09
1.04922e-09
1.7116e-09
1.63279e-09
2.34607e-09
2.17404e-09
2.08528e-09
2.15386e-09
2.27919e-09
2.44589e-09
1.71748e-09
1.82213e-09
1.93919e-09
2.06993e-09
1.86688e-09
1.5793e-09
1.67555e-09
1.49053e-09
1.46282e-09
1.38187e-09
1.10148e-09
1.04163e-09
5.30191e-10
5.12956e-10
7.84291e-10
8.07138e-10
1.00027e-09
1.01664e-09
9.43623e-10
9.30403e-10
1.00533e-09
1.0083e-09
9.7399e-10
1.01319e-09
6.79651e-10
6.97225e-10
5.99756e-10
5.78113e-10
4.5534e-10
4.34226e-10
4.47994e-10
4.31223e-10
5.61558e-10
4.41613e-10
6.72736e-10
6.60747e-10
5.29217e-10
4.93411e-10
5.69509e-10
5.33937e-10
4.193e-10
4.00566e-10
2.924e-10
3.15566e-10
3.02325e-10
2.88093e-10
2.78618e-10
2.88754e-10
2.54898e-10
2.40196e-10
1.79777e-10
1.93745e-10
4.59293e-10
4.5018e-10
3.52873e-10
3.68003e-10
2.45219e-10
2.54767e-10
3.05286e-10
1.16603e-10
1.15611e-10
3.08383e-10
3.08783e-10
2.67008e-10
2.67301e-10
2.71775e-10
2.44858e-10
2.50719e-10
2.46997e-10
2.60741e-10
2.55775e-10
2.87422e-10
2.8348e-10
3.01512e-10
2.99283e-10
2.99481e-10
2.96659e-10
3.54103e-10
3.12784e-10
8.28576e-10
8.50048e-10
5.41453e-10
5.44304e-10
4.53845e-10
4.56435e-10
4.25947e-10
4.18735e-10
4.00525e-10
4.05237e-10
4.23774e-10
4.27635e-10
3.68719e-10
3.64568e-10
3.31924e-10
3.33359e-10
2.71804e-10
3.13179e-10
-6.98963e-08
-8.20407e-08
2.55457e-08
3.31589e-08
-3.99973e-08
3.82563e-08
3.70717e-08
2.10938e-08
-1.4552e-08
7.73227e-08
-2.51248e-08
2.7739e-07
-2.79279e-09
-1.8647e-09
1.2972e-07
1.22068e-07
8.47646e-07
8.62911e-07
2.69525e-07
3.07022e-07
-6.52747e-08
-6.43746e-08
4.17034e-08
5.14242e-08
-2.28981e-08
-7.36789e-09
6.90876e-09
6.35204e-08
1.24613e-07
2.40458e-08
-3.40584e-08
-6.61437e-08
-8.6015e-08
-2.27058e-08
-4.89353e-08
-9.94685e-08
-7.35104e-09
-7.25011e-09
4.30546e-09
4.99146e-09
1.01161e-09
-1.70107e-10
-2.22709e-10
-2.20192e-10
-2.92196e-10
-2.85847e-10
-4.10079e-10
-3.75214e-10
4.17825e-11
4.35116e-11
-1.01265e-10
-9.92374e-11
-1.25861e-10
-1.23314e-10
-1.52689e-10
-1.55926e-10
-1.60277e-10
-1.63384e-10
-1.14207e-10
-1.18947e-10
-2.97887e-11
1.85165e-12
-1.19466e-11
-2.05379e-11
1.49432e-10
1.60146e-10
4.21409e-08
4.59602e-08
3.61191e-08
3.93207e-08
2.99276e-09
2.89899e-09
4.74114e-09
4.47821e-09
1.14086e-09
-4.73536e-09
-2.36402e-09
-4.43776e-09
-4.09191e-09
2.15208e-08
1.98491e-08
-6.22787e-09
-5.36783e-09
-2.30157e-09
-1.85402e-09
-6.76871e-09
-5.884e-09
-1.05098e-08
-1.18629e-08
-2.398e-08
-2.15124e-08
-2.11396e-08
-1.91002e-08
-2.75108e-08
-2.53509e-08
-1.20907e-07
-1.33649e-07
4.87508e-07
4.71291e-07
4.69159e-07
3.79857e-07
8.79247e-07
8.75227e-07
9.89814e-07
1.10503e-06
3.91812e-07
3.67238e-07
5.28841e-07
5.36159e-07
2.74235e-07
2.71866e-07
-1.25953e-07
-1.41659e-07
-6.01059e-08
1.31993e-07
1.44289e-06
1.52825e-06
1.45473e-07
1.40738e-07
1.25113e-06
5.4055e-07
4.8799e-07
7.54351e-07
5.49515e-07
9.42911e-09
3.3668e-08
1.10486e-07
2.94877e-07
2.23906e-07
1.89347e-07
4.4209e-08
-1.08139e-08
-3.23415e-08
-1.19241e-07
-1.18497e-07
-1.337e-07
1.69118e-07
2.18042e-07
6.4329e-08
6.14252e-08
9.85934e-09
3.63042e-08
-3.20264e-08
5.61598e-07
4.52239e-07
3.94296e-07
7.32181e-07
7.45779e-07
7.93808e-07
8.43227e-07
9.80117e-07
8.50265e-07
1.51454e-06
1.51776e-06
1.87747e-06
1.83815e-06
8.39126e-07
8.36835e-07
1.02766e-06
1.05526e-06
3.95176e-07
4.20921e-07
3.42587e-07
3.53685e-07
4.18326e-07
3.73342e-07
-2.29857e-08
-1.88865e-08
-1.06367e-08
-8.50798e-09
-1.79035e-08
-2.28376e-08
-2.73537e-08
-5.06794e-08
-5.74791e-08
-7.07048e-08
-7.50939e-08
-1.25491e-07
-1.22607e-07
-9.5899e-08
-3.85401e-08
-4.90295e-08
-7.33212e-08
1.10934e-07
1.17175e-07
9.05356e-08
9.26298e-08
5.44698e-08
4.89805e-08
1.27164e-07
1.39207e-07
1.59471e-07
1.58613e-07
2.08738e-07
2.16383e-07
7.12685e-10
7.94845e-10
6.61608e-09
6.33787e-09
1.22449e-09
1.25244e-09
2.8754e-09
2.96741e-09
1.09777e-09
1.0748e-09
1.06115e-09
1.05845e-09
1.01199e-09
1.03196e-09
1.06844e-09
1.07837e-09
1.0457e-09
7.01366e-10
6.24717e-10
1.13224e-09
1.14221e-09
1.08241e-09
1.04523e-09
1.20569e-09
1.20657e-09
2.07884e-09
2.17711e-09
2.63976e-09
2.61108e-09
2.74057e-09
2.78005e-09
2.75732e-09
2.96944e-09
2.63256e-09
1.90714e-09
1.93728e-09
1.99105e-09
2.12609e-09
1.56453e-09
1.65526e-09
1.46524e-09
1.47447e-09
9.79081e-10
1.03371e-09
1.07224e-09
1.13527e-09
6.13058e-10
5.95989e-10
7.90869e-10
7.69271e-10
9.29401e-10
9.0427e-10
9.83623e-10
1.10652e-09
1.08715e-09
7.73743e-10
7.4324e-10
8.46661e-10
8.55744e-10
9.40418e-10
9.4145e-10
7.18895e-10
6.9603e-10
7.6215e-10
7.4399e-10
5.8502e-10
6.23336e-10
4.89502e-10
4.68902e-10
4.78418e-10
4.50641e-10
4.69237e-10
5.33268e-10
5.09541e-10
6.27716e-10
5.94544e-10
4.7284e-10
4.88192e-10
5.63214e-10
5.82871e-10
4.93624e-10
5.2825e-10
3.59587e-10
3.45767e-10
3.41006e-10
2.54622e-10
2.40939e-10
3.36157e-10
3.54198e-10
3.02348e-10
2.55456e-10
2.6753e-10
2.01767e-10
2.16263e-10
2.10339e-10
5.88088e-10
5.74802e-10
3.67768e-10
3.83759e-10
3.08078e-10
3.25813e-10
2.7961e-10
2.88439e-10
2.40435e-10
2.37231e-10
2.37445e-10
2.4524e-10
3.57616e-10
2.69354e-10
1.78629e-10
2.74622e-10
2.75282e-10
2.08257e-10
2.13954e-10
2.29462e-10
2.26419e-10
2.44965e-10
2.39057e-10
2.65965e-10
2.60911e-10
2.90719e-10
2.87249e-10
2.96629e-10
2.93952e-10
2.77731e-10
2.79374e-10
2.96515e-10
2.93072e-10
3.07654e-10
3.11477e-10
7.54878e-10
7.35743e-10
5.47296e-10
5.34242e-10
5.19143e-10
5.24144e-10
5.4662e-10
5.52293e-10
5.41875e-10
5.49391e-10
4.66359e-10
4.72248e-10
4.33761e-10
4.28184e-10
4.6083e-10
4.70887e-10
4.10352e-10
4.14184e-10
3.69159e-10
3.61927e-10
3.62098e-10
3.6065e-10
3.14124e-10
3.13009e-10
2.74893e-10
3.93829e-10
2.8022e-10
1.94644e-09
1.97775e-09
6.22403e-07
5.48871e-07
4.18261e-08
1.53144e-07
1.0252e-07
4.39427e-08
2.69537e-09
1.02125e-07
1.39131e-07
2.6733e-08
-2.65197e-08
-1.87948e-07
3.44697e-09
3.05877e-09
7.22824e-08
6.77613e-08
3.17209e-07
2.79885e-07
7.09472e-07
7.15861e-07
9.67573e-07
1.07125e-06
6.6635e-07
7.11254e-07
1.89692e-07
1.12686e-07
-8.03997e-09
9.09456e-09
4.18315e-08
6.12027e-08
-5.33389e-08
-4.52018e-08
-3.65582e-08
1.37296e-07
5.57146e-08
1.75641e-08
1.62861e-07
2.05228e-07
9.52514e-09
-2.02303e-08
-3.93984e-08
4.09301e-07
3.59013e-07
3.39635e-07
-2.10388e-08
-2.0034e-08
-1.91495e-08
1.0292e-08
8.40102e-09
3.65364e-10
3.84241e-10
-3.09008e-10
-3.09516e-10
-2.13377e-10
-2.18891e-10
-1.79227e-10
-1.77797e-10
-2.84436e-10
-2.78901e-10
-4.2684e-10
-3.90272e-10
-2.75618e-10
-2.81223e-10
3.25053e-11
3.09774e-11
-1.25914e-10
-1.27453e-10
-1.2832e-10
-1.24905e-10
-1.29006e-10
-1.26785e-10
-1.44301e-10
-1.48505e-10
-1.42328e-10
-1.38497e-10
-1.56619e-10
-1.62823e-10
-1.61182e-10
-1.74448e-10
-3.70087e-11
-3.12324e-11
2.51589e-11
4.99318e-11
-4.18497e-11
-4.38798e-11
-4.77744e-11
-2.03139e-11
-8.50138e-12
1.02706e-11
2.60713e-10
2.38885e-10
3.56568e-08
3.88577e-08
3.02653e-08
2.78762e-08
3.38895e-09
3.52851e-09
4.25701e-09
4.49552e-09
2.20394e-10
9.26559e-10
1.37421e-11
-4.01401e-10
-3.61408e-09
-3.13946e-09
1.5502e-08
1.43476e-08
-1.57501e-08
-1.93712e-08
-1.06917e-09
-7.47885e-10
-3.89293e-09
-4.57396e-09
-7.50655e-09
-6.54752e-09
-1.33603e-08
-1.49784e-08
-3.06395e-08
-3.37757e-08
-1.74647e-08
-1.56757e-08
-2.55512e-08
-2.33944e-08
-2.283e-08
-2.0534e-08
8.28781e-09
8.09554e-09
5.81451e-07
6.67679e-07
6.97283e-07
4.09738e-07
3.67839e-07
7.85098e-07
7.7437e-07
4.10167e-07
-9.66756e-08
1.08168e-08
8.40058e-09
1.0447e-06
9.62149e-07
1.2205e-06
4.83337e-07
4.41183e-07
1.70533e-07
1.34162e-07
2.71456e-07
2.38572e-07
2.56995e-07
1.29306e-07
-4.20506e-08
-1.22593e-07
-1.34739e-07
-5.15802e-08
-7.68208e-08
-1.72978e-07
1.41768e-07
1.75949e-07
-9.30573e-10
-9.19896e-09
3.91547e-07
2.62188e-07
4.4635e-07
5.233e-07
4.06892e-07
9.35341e-07
1.1394e-06
8.84541e-07
9.15515e-07
8.67897e-07
7.59356e-07
1.35162e-06
1.35728e-06
1.64755e-06
1.69558e-06
8.0874e-07
8.29394e-07
1.06999e-06
1.07391e-06
3.70779e-07
3.4579e-07
-2.73253e-08
-3.16228e-08
-6.90044e-09
-1.25723e-08
-3.0911e-08
-3.49225e-08
-5.90435e-08
-6.51668e-08
-1.11308e-07
-1.04534e-07
-2.75867e-08
1.05865e-07
1.00283e-07
1.22134e-07
1.25675e-07
7.16457e-08
7.73095e-08
1.97594e-07
1.91181e-07
-1.03728e-08
-1.16768e-08
2.13871e-08
2.09062e-08
6.45839e-09
6.29854e-09
1.08102e-09
1.06266e-09
1.30744e-09
1.30587e-09
2.70143e-09
2.81163e-09
1.05194e-09
1.07774e-09
1.53295e-09
1.55023e-09
5.03526e-10
4.47527e-10
1.0743e-09
1.08922e-09
1.07141e-09
1.0715e-09
1.04089e-09
1.04626e-09
1.05939e-09
1.06749e-09
6.10645e-10
5.21944e-10
1.17586e-09
1.18959e-09
1.0897e-09
1.09691e-09
1.17048e-09
1.18246e-09
1.78868e-09
1.84872e-09
1.93361e-09
2.01389e-09
2.55125e-09
2.6572e-09
2.14283e-09
2.05641e-09
2.94203e-09
3.04909e-09
2.68523e-09
2.72645e-09
2.86307e-09
2.65782e-09
1.79302e-09
1.68787e-09
1.49005e-09
1.4818e-09
1.50047e-09
1.5912e-09
1.01115e-09
9.5684e-10
1.10512e-09
1.16871e-09
5.18981e-10
5.00243e-10
5.90178e-10
5.73088e-10
7.73439e-10
7.5178e-10
9.70697e-10
9.86926e-10
1.08411e-09
1.10389e-09
1.07302e-09
1.09222e-09
9.41966e-10
9.19626e-10
9.49365e-10
9.49951e-10
8.93396e-10
8.85044e-10
1.00965e-09
1.012e-09
9.79207e-10
9.65821e-10
6.43174e-10
6.63447e-10
6.66152e-10
6.84927e-10
6.07869e-10
6.29296e-10
6.61908e-10
6.38148e-10
5.01247e-10
5.23016e-10
5.24955e-10
5.03527e-10
4.05428e-10
4.24013e-10
4.54392e-10
4.36166e-10
5.44202e-10
4.95517e-10
7.03045e-10
6.93149e-10
4.99969e-10
4.67225e-10
4.69224e-10
4.45895e-10
3.94203e-10
4.21081e-10
5.16105e-10
5.50364e-10
3.85957e-10
3.70603e-10
2.33901e-10
2.19027e-10
3.52335e-10
3.72137e-10
2.49691e-10
2.68155e-10
2.66244e-10
2.7639e-10
2.32453e-10
2.24485e-10
4.48484e-10
4.39348e-10
2.90748e-10
2.73969e-10
3.38389e-10
3.5437e-10
2.11687e-10
3.20016e-10
2.67921e-10
2.58086e-10
1.06297e-10
1.05274e-10
1.16879e-10
1.18462e-10
2.51841e-10
2.57991e-10
3.02156e-10
3.03794e-10
2.86489e-10
2.92538e-10
2.74383e-10
2.7431e-10
2.45857e-10
2.43972e-10
2.21269e-10
2.14902e-10
2.36157e-10
2.33898e-10
2.41664e-10
2.45207e-10
3.37424e-10
3.01642e-10
2.93558e-10
2.90632e-10
2.90812e-10
2.87996e-10
3.02179e-10
2.99781e-10
3.56079e-10
3.15282e-10
3.56684e-10
3.16261e-10
8.16892e-10
8.20654e-10
7.428e-10
7.61418e-10
5.45997e-10
5.59686e-10
5.29336e-10
5.32706e-10
5.78259e-10
5.71365e-10
5.57166e-10
5.58397e-10
4.57694e-10
4.62775e-10
4.50639e-10
4.5856e-10
4.19637e-10
4.26608e-10
4.19418e-10
4.11818e-10
4.11407e-10
4.06615e-10
4.01179e-10
3.57014e-10
3.50235e-10
3.55632e-10
3.21156e-10
3.22844e-10
3.42389e-10
3.39765e-10
2.92571e-10
2.95628e-10
2.87435e-10
2.06651e-09
-6.4566e-10
-1.23746e-07
-1.29516e-07
5.0997e-07
4.46021e-07
-6.61933e-08
-9.52541e-08
1.597e-07
1.06889e-07
2.15325e-08
8.32341e-08
1.73301e-07
2.07528e-07
2.16315e-07
2.16223e-07
5.23767e-08
1.01939e-07
2.19073e-07
2.759e-07
-4.60083e-08
-4.16625e-08
1.81815e-08
2.12094e-08
4.57877e-08
6.54831e-08
1.24699e-07
1.10607e-07
3.02494e-07
3.41808e-07
6.35376e-07
6.36692e-07
6.4973e-07
6.78768e-07
9.81915e-07
1.08424e-06
6.33735e-07
5.96057e-07
1.06959e-06
1.01111e-06
2.15676e-07
1.50508e-07
2.94741e-08
6.40066e-09
-4.87696e-09
5.16136e-08
-3.00973e-08
-1.25693e-08
2.35854e-08
6.9261e-08
9.06125e-08
1.32857e-07