/*--------------------------------*- C++ -*----------------------------------*\
  =========                 |
  \\      /  F ield         | OpenFOAM: The Open Source CFD Toolbox
   \\    /   O peration     | Website:  https://openfoam.org
    \\  /    A nd           | Version:  7
     \\/     M anipulation  |
\*---------------------------------------------------------------------------*/
FoamFile
{
    version     2.0;
    format      ascii;
    class       volScalarField;
    location    "300";
    object      T;
}
// * * * * * * * * * * * * * * * * * * * * * * * * * * * * * * * * * * * * * //

dimensions      [0 0 0 1 0 0 0];

internalField   nonuniform List<scalar> 
238806
(
0.000999865
0.00109825
-1.0442e-05
-8.04201e-06
-1.06527e-05
0.000520566
0.000321962
0.00142219
0.00140224
3.48706e-05
7.5769e-05
-1.39611e-05
0.000305389
0.000354293
4.20974e-08
2.44847e-07
1.60721e-06
2.29144e-05
0.00189148
0.00139217
0.000632451
0.00060528
-3.0062e-06
-4.73039e-06
-2.55146e-06
-1.38461e-05
-1.39358e-05
-1.11277e-05
-1.41808e-05
-1.66472e-06
0.000896774
0.000794584
0.000189504
0.000296722
0.000211512
0.000226024
-5.16108e-35
-2.04969e-35
8.86754e-05
0.000186225
0.000145844
-4.45332e-06
0.000474624
0.000478586
0.00145856
0.00186548
-3.22929e-06
1.04036e-05
0.000424737
0.000574878
0.00073446
0.000548377
0.000343219
0.000396919
1.77389e-16
2.31519e-16
2.15758e-05
1.59079e-05
6.04853e-05
-2.93712e-07
2.07696e-05
-1.492e-05
0.000165107
0.000232015
0.000283645
0.000943381
0.00148083
0.00137497
0.000942171
0.00122154
0.00122573
0.000366511
0.000257798
0.000603496
0.000462768
0.000740463
0.00083922
0.000231941
0.000249728
2.88185e-09
3.51377e-09
0.000504237
0.000808078
0.000865036
0.00112352
0.000868904
0.000848045
-8.12012e-06
-7.15231e-06
-1.09908e-05
-1.02304e-05
6.36284e-05
9.38313e-05
0.000966632
0.000425789
0.000186773
0.000195555
0.000203623
8.63686e-05
-5.34795e-06
0.00183118
0.00153637
0.00161165
0.000971382
0.000615985
0.000328519
0.00028412
0.000619957
0.000505599
0.000335058
0.000225614
0.000965633
0.00100776
0.000497714
0.00066134
0.000249927
0.000280899
-2.85384e-36
-8.1509e-37
-2.32705e-36
2.37355e-07
7.19039e-08
0.00103993
0.000818115
0.000551392
0.000344058
-1.47704e-06
3.34127e-08
-9.85605e-06
-4.79332e-06
0.000140517
-6.53111e-06
-1.1721e-05
-1.9191e-06
-1.91395e-05
2.69977e-05
0.00126939
0.00129393
2.73997e-07
-1.07785e-06
-3.78487e-06
-2.12055e-06
0.000367561
0.000518646
6.30142e-05
0.00169674
0.00166264
0.00156816
0.00144702
0.00137723
0.00138239
0.00107685
0.00117476
0.000260338
0.000200522
0.000579354
0.000501971
0.000390706
0.000285183
0.000585931
0.000567112
0.000673074
0.000772643
0.000756825
0.000938578
0.000330647
0.000363748
2.45118e-08
2.3601e-08
4.51885e-36
-4.75161e-35
0.000581281
0.000859938
4.48198e-10
4.60641e-10
1.59919e-10
0.00107918
0.000838639
0.000511727
0.0006457
-5.69963e-07
2.26642e-08
-2.89327e-07
-1.27734e-05
-1.34398e-05
-1.07785e-05
-2.48991e-06
-3.439e-05
0.000974574
0.000996005
0.000971244
0.000985876
0.000148584
2.71762e-06
4.1101e-05
1.73901e-05
0.000124056
-7.39924e-06
1.76008e-07
-1.62405e-05
-4.07522e-06
0.00130994
0.00181972
0.0012623
0.000762189
0.00133047
0.000867994
0.00112347
0.00110516
0.00134233
0.00130248
-8.81898e-07
-8.90726e-07
0.000150202
0.0001074
0.00016337
0.000236266
4.27845e-05
0.000105055
0.000489365
0.000617226
0.000953302
0.000930578
0.00097504
0.000897588
0.000877261
0.000709665
0.000248245
0.000268286
5.67098e-07
7.04327e-07
5.26891e-13
8.21861e-13
5.32457e-12
8.244e-12
1.9958e-21
3.32153e-22
0.00226267
0.00230954
-3.3407e-05
-4.05589e-05
7.29187e-08
4.28115e-09
4.83333e-07
4.09693e-07
0.00100097
0.000810981
0.000745653
0.00059195
0.000783511
0.000733869
0.000427386
0.000440773
2.90539e-05
8.67356e-06
-8.03061e-06
-1.49387e-05
5.60919e-05
5.09086e-05
0.000400042
0.000400255
0.000927241
0.000951417
0.000177367
0.000160897
0.000820913
0.000808634
9.08756e-05
0.000143638
7.62079e-07
-8.40254e-06
0.000264217
-1.34481e-05
-1.97399e-05
-1.9012e-05
-2.33504e-05
0.00176089
0.00125692
0.00182032
0.00165288
0.00164411
0.00162025
0.00142747
0.00148378
0.000513032
0.000406341
0.000714554
0.00101277
6.04038e-05
6.74959e-05
1.68026e-06
-3.54668e-06
0.000150247
0.00010963
0.000132404
8.62531e-05
0.000194598
0.000121356
0.000136457
6.88485e-05
0.000406783
0.000306505
0.000274888
0.000319343
0.00083078
0.000735266
0.000412252
0.000541044
0.000814626
0.000907336
0.000197195
0.000160049
0.00029987
0.000228857
0.000602273
0.000545671
-4.67596e-12
-5.92554e-12
1.82892e-07
2.31771e-07
4.20955e-09
3.07638e-09
2.4697e-09
2.01606e-09
4.68282e-13
3.88665e-13
4.85468e-22
2.75597e-21
-2.67328e-36
0.000637945
0.000892687
-4.46965e-08
-1.5012e-06
-8.48545e-19
-4.51752e-19
0.000144021
0.000160702
-4.36927e-10
-2.04024e-10
0.000193521
3.37932e-05
0.000576268
0.000370971
0.000695534
0.000551321
0.000754763
0.000706885
3.15387e-07
-2.03661e-06
-4.63986e-06
-1.16633e-06
-2.2213e-05
-2.35952e-05
-1.80101e-05
-1.6026e-05
0.000739464
0.00069092
0.000939356
0.000466412
0.000454789
0.000203187
0.000178073
0.000201102
0.000426182
5.3823e-06
0.000176459
-4.67569e-06
-8.84259e-06
-2.58623e-07
0.000370704
0.000443144
-1.90408e-05
-7.41898e-06
-6.25571e-06
-1.11565e-05
-2.08698e-05
-1.15619e-05
0.000843295
0.000408086
5.04238e-05
0.000504023
0.0009735
0.00146253
0.00105428
0.000487803
0.00116381
0.000606712
0.000884099
0.000895704
0.000910474
0.000889199
0.000600183
0.000928013
0.000992105
0.00135561
0.000378296
0.000455798
0.00122671
0.00129277
0.00115628
0.00111458
-1.21884e-06
-7.87363e-07
0.000394447
0.00042883
0.000147864
0.00010974
0.000141532
9.57984e-05
8.66754e-05
4.57336e-05
2.76059e-05
5.28121e-06
0.000415252
0.000321602
0.000357294
0.000304959
0.000800327
0.000721923
0.000597441
0.000452546
0.000651474
0.000726356
0.000200037
0.000215416
0.000271261
0.0002103
0.000662228
2.73341e-09
3.73641e-09
6.54184e-07
8.09935e-07
7.81386e-08
5.94223e-08
6.77838e-08
8.92943e-08
5.33914e-13
3.41206e-13
4.50697e-12
6.77464e-12
9.3362e-13
6.04794e-13
6.58275e-28
1.62608e-28
4.7523e-14
7.45246e-14
-6.28951e-06
7.4832e-05
4.73364e-05
7.10702e-05
0.000103632
-1.86633e-08
1.6795e-07
1.25672e-07
2.26451e-07
3.36509e-16
4.34029e-16
3.65611e-05
3.29994e-05
-1.21695e-08
-1.21388e-08
6.68177e-11
-2.33679e-11
4.1131e-08
-1.69312e-09
2.84303e-06
0.000143582
0.000987436
0.00103258
0.000432785
0.000276698
0.000831297
0.000552977
0.000616943
0.000544486
-7.49215e-06
-6.81567e-06
-5.29058e-06
-8.04016e-08
-5.06081e-06
-4.3156e-05
-1.21932e-05
0.000958401
0.000448344
0.00127601
0.00124226
0.00137195
0.00139748
0.00015458
0.000144117
0.000269548
0.000247515
0.000233405
0.000217598
0.000551799
0.000589388
0.000183852
0.000295452
-4.37903e-06
7.1521e-06
3.60783e-05
-1.04361e-05
6.17035e-07
-3.31347e-06
-6.64028e-06
-1.78789e-06
-1.71718e-05
-2.33758e-05
0.000572408
0.000480254
0.000607291
0.000151609
0.00171264
0.00122906
0.00175047
0.00179212
0.00190242
0.00158768
0.00166616
0.00176385
0.00103128
0.000996918
0.00125081
0.00119871
0.0011298
0.00120692
0.00048233
0.000392665
0.00151259
0.00141958
0.000411179
0.00034772
0.000939622
0.000663957
0.00111041
0.0010051
8.58923e-07
2.48016e-07
-1.16551e-07
-8.25733e-07
0.000468587
0.000525851
0.00029978
0.00035001
0.000196875
0.000247622
0.000197221
0.000261305
0.000147451
0.000102893
0.000104668
6.06705e-05
4.67649e-05
1.68546e-05
0.000510609
0.00059947
0.000416618
0.00033046
0.000304804
0.000243844
0.000578114
0.000543615
0.000763789
0.000700821
0.000732393
0.000871072
0.00031528
0.000404977
0.000516473
0.000358385
0.000911181
0.000849153
0.000788777
0.000725053
0.000197396
0.000183759
0.000492574
0.00044305
3.1761e-15
2.23734e-15
-7.09781e-13
-6.48597e-13
2.15423e-07
2.72467e-07
1.78626e-08
1.71215e-08
3.52281e-09
4.79927e-09
1.25566e-12
8.81637e-13
2.04501e-13
5.36809e-14
1.64732e-11
1.36095e-11
7.28496e-13
1.12531e-12
-5.17401e-30
-2.19957e-30
7.68173e-36
-5.57067e-36
7.36693e-17
5.75777e-17
-3.21881e-22
-3.22996e-22
-2.45559e-05
-1.8711e-05
-2.18093e-06
-4.16968e-05
8.48154e-06
2.06411e-05
0.000361998
0.000205945
8.22411e-06
6.92522e-05
-1.59646e-06
-5.75065e-06
2.12895e-15
3.02904e-15
2.11306e-30
1.08975e-30
6.75497e-08
1.46438e-08
1.40235e-06
1.21463e-06
-1.90203e-12
-5.5588e-12
7.74963e-11
4.70522e-11
-2.37394e-11
-3.51064e-11
0.000240346
7.16937e-05
0.000460305
0.000454961
0.00103521
0.0010071
0.000765612
0.000804541
0.000458265
0.00028706
0.000731456
0.000729063
0.000572808
0.000587291
-2.04188e-07
9.46601e-09
0.000175899
0.000213123
4.96712e-05
7.54873e-06
-5.36378e-06
-2.20268e-05
-1.33782e-05
0.000896635
0.000458259
8.54227e-05
0.000110887
0.00122415
0.00121388
0.0013182
0.00134568
0.000144111
0.000135945
0.000425389
0.000388802
0.000189829
0.00016945
0.000845146
0.000832425
0.000521309
0.000504181
-1.21547e-05
-9.71428e-06
-1.12827e-05
-5.99207e-06
0.000140188
0.000196721
-2.12526e-05
-1.98645e-05
-1.29016e-05
0.000534201
0.000615094
1.791e-05
-1.08772e-05
-3.73688e-07
-1.58427e-05
0.000905473
0.000981836
0.000482042
4.77714e-05
0.00147959
0.000965369
0.000926889
0.000358121
0.00109734
0.00103851
0.00105388
0.00107612
0.000912918
0.00108729
0.00104288
0.000877992
0.000825187
0.00128474
0.00136178
0.00126406
0.000909296
0.00111298
0.00118843
0.000811295
0.00058031
0.000432127
0.000363242
0.00121386
0.00119005
4.10788e-05
3.48221e-05
2.28615e-06
4.31024e-06
-4.44008e-07
-1.6156e-07
-8.93235e-07
-2.97831e-06
0.000333274
0.000411723
0.000446102
0.000494754
0.000313308
0.000369901
0.000237251
0.000190988
0.000190023
0.000257885
0.000120167
7.45049e-05
6.70653e-05
3.08219e-05
0.000512203
0.000613449
0.000397494
0.000338236
0.000539836
0.000527723
0.0008327
0.000841586
0.000854441
0.000739414
0.000611437
0.000708478
0.000270818
0.000313038
0.000805801
0.000774752
0.000874998
0.000536902
0.000596423
0.000170713
0.000185769
0.000530123
0.000587534
0.000384486
0.000429125
0.000248915
0.000266943
2.88355e-15
1.52133e-14
1.18734e-13
8.99992e-14
2.65353e-08
3.00442e-08
2.87965e-07
2.23643e-07
6.38542e-08
8.32184e-08
7.52056e-08
9.96003e-08
3.1082e-13
1.98999e-13
2.22897e-12
6.04374e-13
2.74014e-10
2.44282e-10
3.40286e-12
5.08069e-12
2.16518e-11
3.19056e-11
4.77855e-12
7.15663e-12
2.17966e-12
1.43086e-12
-1.89298e-23
-7.65098e-23
-1.27518e-29
-2.78558e-30
-2.5888e-31
-3.55267e-32
-4.5247e-36
-7.40931e-37
-8.47477e-34
5.49416e-34
3.05041e-17
3.9696e-17
1.15156e-36
-4.19268e-37
-3.8617e-36
7.06501e-05
1.08186e-05
0.000603768
0.000798447
0.000441569
0.00113502
0.00108433
1.06864e-05
8.80569e-06
7.66253e-07
1.46309e-05
0.000551137
0.000698333
0.000269031
0.000428467
-2.77884e-05
-1.61108e-05
-2.19128e-05
-2.91705e-05
9.93318e-05
7.81812e-05
2.22134e-22
-9.33033e-23
3.30425e-16
4.88722e-16
2.45473e-18
3.6231e-18
3.6893e-28
-1.46052e-28
2.11263e-05
2.47534e-05
4.39393e-05
4.02276e-05
4.37805e-06
3.80054e-06
1.04257e-06
8.86929e-07
-2.29106e-10
-2.25773e-10
3.43835e-10
7.22623e-10
3.92824e-10
1.07377e-09
8.65687e-10
0.000248928
0.000200908
0.000157995
5.97327e-06
0.000587335
0.000547759
0.000416663
0.00105715
0.00102007
0.000831314
0.000960241
0.000895514
0.000246747
0.000362241
0.000719729
0.000883489
0.000424219
0.000397862
-4.17808e-06
-3.08739e-06
0.000296768
0.000323991
-5.05497e-06
1.61635e-05
-2.06395e-05
-1.08267e-05
0.000464247
0.00092758
-3.73875e-06
-3.96222e-05
0.000390253
0.000359398
0.00134325
0.00131103
0.000165632
0.000152447
0.000355117
0.000324088
0.000315956
0.000532492
0.00062578
0.000663002
0.000798673
0.000785326
-1.65402e-05
-8.98829e-06
-1.79512e-05
-1.70862e-06
-1.01665e-07
1.51715e-07
0.000201366
0.000252589
5.17053e-05
7.70093e-05
-1.03797e-05
-5.31897e-06
0.000154174
0.000105332
-1.80287e-05
-2.17753e-05
-1.91561e-05
-2.144e-05
0.00164082
0.00123735
0.000489901
5.78304e-05
0.00162655
0.00186643
0.000428926
0.000603884
0.00114037
0.00129458
0.00132845
0.000578442
0.000552752
0.000430772
0.000592066
0.00141029
0.00144855
0.000391999
0.000331927
0.00123626
0.0011509
2.15491e-06
3.33778e-06
-2.84017e-07
-6.74445e-07
-5.46624e-07
-1.02845e-06
-3.25099e-07
5.1114e-06
-6.00967e-06
0.000487574
0.000554418
0.000395514
0.000366907
0.0002002
0.000255527
0.000249732
0.000178882
9.57311e-05
0.000166999
0.000334866
0.000265359
0.000451619
0.000448934
0.000493792
0.000528272
0.00065249
0.000683329
0.000888881
0.000893994
0.000555052
0.000647523
0.000399001
0.000288664
0.000396724
0.000316266
0.00037451
0.000546072
0.000926107
0.000962813
0.000647032
0.000158327
0.000172569
0.000435394
0.000483455
0.000314767
0.000351554
-1.28288e-13
-1.48121e-14
1.94215e-15
1.05263e-14
-3.32952e-13
-1.61242e-12
-5.7023e-13
-3.64537e-12
6.90483e-07
8.83191e-07
2.28948e-07
2.9172e-07
7.31995e-08
9.48492e-08
2.43442e-08
1.78305e-08
6.5105e-09
5.73767e-09
-1.25954e-13
4.77512e-14
1.39259e-12
3.63239e-13
7.76447e-10
6.88443e-10
1.05218e-13
6.37939e-14
1.37942e-13
2.71708e-14
6.58499e-12
4.35729e-12
2.28374e-11
3.38222e-11
3.51937e-11
5.12608e-11
9.55628e-13
6.0826e-13
5.59403e-12
8.4399e-12
1.72697e-12
2.63728e-12
1.09706e-14
6.58092e-15
6.31473e-29
3.29989e-28
7.87447e-32
1.30728e-31
-1.30798e-35
-2.50167e-36
-7.58e-31
-3.97935e-31
-9.41585e-23
-7.42711e-23
5.59759e-17
1.01837e-16
-2.50965e-22
-3.28122e-22
-3.11341e-23
-2.39284e-23
0.00183049
0.00181308
0.00215896
-1.02887e-05
-2.09944e-05
-2.31529e-05
-3.51812e-05
-2.28403e-05
-3.04363e-05
9.23862e-06
7.35991e-06
0.00178479
0.00183788
-2.30241e-06
4.31226e-06
3.14193e-05
5.19951e-05
0.000282674
0.000138323
1.16971e-06
-2.90387e-06
-1.3881e-05
-4.22197e-06
0.000322779
0.00038564
6.25423e-05
6.1059e-05
-6.67574e-28
-3.64345e-28
6.73171e-15
8.28181e-15
2.58923e-16
1.72531e-16
6.28513e-16
8.0229e-16
-7.1455e-28
4.34961e-27
-7.36098e-25
-1.46589e-26
0.000131163
0.000147761
1.59133e-07
2.21927e-07
3.20994e-06
4.24228e-06
0.000142718
0.000159871
2.49033e-05
2.75063e-05
5.63746e-07
6.51186e-07
-2.18473e-08
-1.90004e-08
-1.07675e-11
4.69195e-12
-1.0795e-08
-9.5618e-09
3.87749e-10
-1.07847e-07
0.000479226
0.00051073
0.000396968
0.000436074
0.000943485
0.000997669
0.000676993
0.00072144
0.000385342
0.000257265
0.000364075
0.000318709
0.000705345
0.00078937
-1.57572e-06
-3.0628e-06
-1.63828e-06
-5.16128e-06
-4.28881e-06
0.000205972
0.00024236
3.44464e-05
6.52295e-05
-1.73844e-05
-1.95953e-05
-1.98615e-05
-2.12152e-05
-1.00854e-06
-2.87199e-05
0.000125102
0.000441979
0.000429671
0.00122601
0.0011703
0.000577713
0.000556913
0.000269429
0.000208979
0.00029365
0.000320357
0.000365262
0.000147329
6.29855e-05
0.000158192
0.000107532
1.38462e-05
-6.28259e-06
-1.06182e-05
5.44441e-06
-7.83432e-06
-3.89568e-06
-1.01898e-05
0.000364043
0.000532819
0.000453978
0.000323167
0.000376357
0.000110485
0.000151125
-1.22773e-05
-9.57402e-06
1.89144e-05
-3.32825e-05
-2.27628e-05
0.00141821
0.000981461
0.00121827
0.0016705
0.000603316
0.000484337
0.000717219
0.000493922
0.000817509
0.000992358
0.000726214
0.000655218
0.00135052
0.00135298
0.00109112
0.000771288
0.000548832
0.000419055
0.000619829
0.000872865
1.41621e-05
1.68925e-05
1.34225e-06
4.31353e-06
-2.02829e-08
9.972e-07
-1.61249e-08
3.20576e-08
9.60546e-06
1.95078e-05
-4.99349e-06
-4.87071e-06
0.000401667
0.000330878
0.000421101
0.000462143
0.000144028
0.000217812
0.000191157
0.000231421
0.000361691
0.000393442
0.000630002
0.000596596
0.000722643
0.000673421
0.000445552
0.000344153
0.000503596
0.000590234
0.000308816
0.000435464
0.000300872
0.000366346
0.000490144
0.000342782
0.000982821
0.00101528
0.000175846
0.000219995
0.000146623
0.000160564
0.000477583
0.000391647
-2.35505e-14
-1.89245e-13
-2.67475e-13
-1.20455e-12
-2.13846e-12
-2.80684e-12
-1.30673e-11
-1.53925e-11
7.39076e-09
1.21885e-08
1.2535e-06
1.31422e-06
3.70492e-07
3.69545e-07
1.73044e-07
1.3334e-07
1.07933e-07
1.02299e-07
8.04425e-08
1.07132e-07
1.21374e-08
1.63097e-08
6.78378e-14
4.60159e-14
6.83816e-14
-1.80166e-13
7.44009e-10
5.10749e-10
7.01024e-10
6.01103e-10
2.51966e-10
2.13966e-10
2.95648e-10
2.4782e-15
4.80203e-15
8.98475e-15
1.60856e-14
4.55394e-13
8.82526e-12
5.90222e-12
1.50685e-11
2.24562e-11
4.69182e-11
6.07274e-11
1.99885e-11
1.64178e-11
1.11263e-11
7.47633e-12
9.12991e-13
1.42062e-12
5.30356e-12
7.94847e-12
2.02228e-12
3.0997e-12
-1.67093e-18
-1.2206e-18
1.13862e-13
1.67223e-13
-9.75528e-27
5.22227e-28
-7.37892e-29
-4.36286e-29
1.91733e-31
-8.39159e-31
-1.54879e-34
-7.50621e-35
-1.66425e-35
-7.61533e-36
3.64742e-33
2.04661e-33
6.12936e-23
-5.28511e-23
1.00854e-16
7.72902e-17
4.01796e-19
4.03224e-19
-2.89557e-22
-2.6922e-22
-4.32782e-22
-4.13897e-22
-8.54282e-26
-9.12661e-26
6.7646e-36
-1.66639e-36
0.000797313
0.00126847
-1.68343e-05
2.15956e-05
8.14733e-05
0.000136999
-3.88713e-05
-2.89404e-05
-2.31431e-05
5.34888e-05
-3.16384e-05
0.000605367
0.000495195
0.00302126
0.00308673
-7.40745e-06
-6.333e-06
-5.77629e-06
4.44066e-05
2.02473e-05
5.19711e-05
5.50502e-06
-7.63587e-06
-2.23661e-05
-4.45461e-05
-1.6512e-05
-1.18171e-05
3.68867e-07
1.08159e-08
7.83572e-06
1.95421e-05
8.02609e-05
0.000102312
-3.73285e-21
-4.64978e-22
4.21426e-26
1.58445e-26
2.08353e-18
2.54387e-18
-2.13604e-18
1.01632e-18
1.34977e-16
8.84784e-17
2.77357e-28
1.50248e-26
2.15667e-26
-3.04997e-25
5.31146e-05
6.11125e-05
0.000110209
0.000124476
2.84417e-07
2.05479e-07
6.0715e-12
8.36289e-12
5.79193e-12
2.86116e-11
-8.21546e-10
-1.90786e-09
3.01503e-05
3.27803e-05
1.94631e-06
1.65973e-06
-5.92607e-09
-4.86543e-09
-1.78825e-08
-1.31546e-08
-9.69816e-12
-1.21636e-11
-6.34803e-10
-4.72494e-10
0.000663514
0.000698963
0.000288392
0.000108617
0.00117738
0.00120613
0.000838445
0.000819005
0.000846033
0.000919929
0.000408828
0.000267203
0.000300041
0.00050605
0.000728266
0.000821227
-1.62308e-06
9.51151e-06
-1.26898e-06
0.000118737
5.93198e-05
0.000114794
0.000271563
8.85158e-05
0.000125877
-8.33551e-06
7.88627e-06
0.000131971
0.000135926
0.000872153
0.000895034
0.000223506
0.00017642
0.000227441
0.000295592
0.000605703
0.00059324
0.000856718
0.000854092
0.000233713
0.000301672
2.52205e-05
1.28778e-05
3.80195e-05
7.25567e-05
0.000101617
6.93682e-05
5.16103e-05
1.04354e-05
4.00731e-05
2.95024e-05
-1.96498e-05
-4.4839e-06
-2.56217e-07
-1.31938e-07
-1.76259e-08
0.00049265
0.000705318
0.000523898
0.000143187
0.000243346
1.8677e-05
2.67412e-05
5.71904e-06
-1.52729e-05
-1.08064e-05
-2.71029e-05
-2.45134e-05
-1.28685e-05
-3.08879e-05
0.00144125
0.000978532
0.000589338
0.000564532
0.000566897
0.000453392
0.000617276
0.000850633
0.00139379
0.000771679
0.00052441
0.00107851
0.000903556
0.00084756
0.000789051
0.00136454
0.0012979
0.000836269
0.0011756
2.69438e-05
3.0348e-05
4.44845e-06
1.48797e-06
7.64603e-06
1.10186e-05
-2.36419e-06
-2.19367e-06
-5.81981e-07
-3.82036e-07
-9.403e-08
3.65046e-08
-3.34002e-06
-1.88094e-06
-3.0434e-06
-3.67991e-06
0.000387421
0.00032396
0.000252695
0.000206579
0.000435772
0.000403036
0.000494905
0.00048809
0.000737134
0.000710818
0.000678406
0.000641112
0.000490657
0.000376286
0.000255815
0.000289919
0.00028576
0.000338535
0.00104591
0.00106685
0.000192593
0.000244676
7.48042e-07
7.69153e-07
4.07271e-13
-1.4551e-12
1.3462e-12
5.93842e-13
1.09823e-13
8.19364e-14
3.87327e-13
2.88607e-13
3.94845e-13
-1.72316e-13
3.21031e-09
2.32999e-09
1.44339e-07
1.07079e-07
7.04596e-07
6.36534e-07
3.52318e-07
4.71396e-07
2.52658e-07
3.18677e-07
1.01272e-07
1.31195e-07
1.39317e-07
1.7898e-07
1.22208e-07
8.27097e-08
1.10851e-07
6.01171e-08
4.49933e-08
3.39237e-08
1.05354e-08
7.78976e-09
8.64227e-19
5.13e-19
2.14925e-13
3.36921e-13
7.10018e-12
1.01798e-11
2.77741e-15
1.56715e-15
3.77756e-10
6.72971e-10
1.55917e-09
2.24245e-09
2.63078e-10
2.28525e-10
3.55903e-10
3.03257e-10
8.72235e-11
7.32384e-11
1.04713e-13
6.12629e-14
9.00437e-14
3.39351e-13
7.65371e-12
1.3772e-11
1.03534e-11
6.91398e-12
4.15376e-11
2.83581e-11
6.07661e-11
5.0781e-11
9.14506e-12
1.10267e-11
1.76077e-12
1.137e-12
3.67807e-12
3.5018e-12
4.98479e-12
3.30438e-12
5.45105e-13
8.49413e-13
2.38728e-18
1.22369e-18
4.18815e-15
7.25598e-15
5.99231e-14
3.97035e-14
6.98254e-14
3.9889e-20
1.3527e-20
8.7868e-29
2.13271e-28
-5.75482e-30
-1.05722e-29
1.92446e-32
2.77262e-32
1.07412e-33
6.16335e-33
-6.3163e-34
-4.27157e-34
-2.94272e-35
-6.50249e-35
5.21182e-35
-2.28851e-35
-9.36372e-34
-1.26413e-32
1.32004e-33
5.82942e-34
5.91553e-14
9.25512e-14
2.49481e-18
2.14751e-18
9.55897e-21
1.05173e-20
4.25771e-20
1.74716e-20
-2.17341e-22
-2.03288e-22
-3.87292e-22
-3.48558e-22
-7.40684e-25
-8.40509e-25
3.31075e-28
5.82824e-28
7.50671e-37
6.29773e-37
-2.65412e-06
-2.88757e-06
4.24413e-05
8.18198e-05
0.000102209
2.83148e-05
9.57736e-05
-3.39567e-05
-5.29605e-06
-3.49469e-05
-1.14508e-05
0.000302582
0.00030599
0.0003082
0.00149969
0.00149692
0.00294514
0.00261558
0.00186127
0.00220282
-4.16339e-07
-6.44214e-06
0.000668949
0.000879476
7.62463e-05
0.000154487
2.37357e-06
2.94022e-05
0.000124804
-4.70837e-05
-4.12521e-05
-4.88399e-05
-2.88996e-06
-2.06024e-05
-1.50515e-05
-2.1439e-05
8.9473e-10
-1.20637e-10
0.000292366
0.000347111
4.34258e-07
6.12957e-07
1.74408e-14
1.76961e-14
-1.10174e-23
-2.49559e-23
3.09075e-26
1.17671e-26
6.5985e-19
1.30712e-18
3.8583e-18
2.04998e-18
-2.60864e-20
-1.19479e-18
1.15826e-15
1.46366e-15
2.33878e-17
3.19492e-17
3.18804e-24
-1.74779e-21
6.4608e-31
1.78478e-30
-7.92686e-27
1.20577e-26
1.69675e-28
7.98985e-29
0.000117966
0.000133148
0.000140057
0.000156991
3.71485e-06
3.06398e-06
2.79697e-06
2.26163e-06
6.02381e-12
1.65248e-11
2.73488e-11
-2.49006e-09
-8.29504e-10
0.000101119
8.92737e-05
7.11737e-06
6.38355e-06
3.2747e-06
2.80057e-06
4.20142e-08
3.5311e-08
9.55583e-12
7.19735e-12
3.86321e-07
4.23519e-07
-6.98885e-09
-6.24748e-09
3.40674e-10
2.7649e-10
2.01439e-08
-8.59871e-10
0.00087856
0.000888816
0.000351301
0.000150376
0.00104549
0.00114401
0.000764474
0.000721351
0.000795864
0.000876805
0.000487334
0.000301558
0.000532733
0.00055862
1.04234e-08
1.13977e-09
-6.52225e-06
0.000139776
0.000461471
0.00094621
0.000192036
0.000245437
0.00055697
0.000699036
0.000727468
4.12012e-05
9.42807e-05
-1.71364e-05
-3.63926e-06
-4.11614e-06
0.000146024
0.000229517
0.0001375
1.19356e-06
-7.50125e-06
-1.64418e-06
6.89146e-08
-1.35495e-08
2.74894e-08
0.000443922
0.000670304
9.90789e-05
5.37329e-05
2.48229e-05
7.03476e-05
-2.82413e-06
9.86887e-05
0.000143593
-2.65323e-05
2.01729e-05
0.00150705
0.00158416
0.0015273
0.00069625
0.000251523
0.000526966
0.000594717
0.00107716
0.00175966
0.000441805
0.000622241
0.00128746
0.000774541
0.00122797
0.00105411
0.000661913
0.000461977
0.00111363
0.00112682
4.14939e-05
5.16437e-05
7.26842e-05
7.6064e-05
3.28488e-05
1.90889e-05
9.96809e-06
4.929e-07
-8.69654e-07
-1.28778e-06
-7.23314e-07
1.14837e-08
3.33396e-08
-1.73305e-06
1.21133e-05
2.7215e-06
-3.55329e-06
0.000536507
0.000456445
0.000277483
0.000224257
0.000410323
0.000410789
0.000790399
0.000771232
0.000240832
0.00026897
0.000828577
0.000669025
1.39282e-08
1.04301e-08
5.36794e-06
5.94781e-06
1.50963e-11
2.26146e-11
1.01576e-07
1.31954e-07
1.54073e-09
1.07853e-09
5.09196e-14
4.28542e-14
2.01939e-13
1.76451e-13
-4.87768e-13
-4.06851e-13
2.10632e-13
2.97078e-11
8.55824e-11
4.76788e-09
6.48806e-09
2.27789e-09
1.5774e-09
7.39251e-09
1.03888e-08
5.60689e-07
7.20289e-07
1.02647e-06
9.77079e-07
6.07234e-07
6.86457e-07
4.69294e-07
5.93094e-07
4.00588e-07
1.43288e-07
1.68784e-07
1.56553e-07
1.99402e-07
8.11147e-08
1.09243e-07
5.1173e-08
5.64944e-08
5.57295e-09
7.61695e-09
8.79332e-09
1.18263e-08
-4.05436e-17
-2.55203e-17
2.18253e-13
1.39405e-13
1.00549e-12
6.83293e-13
4.60176e-12
1.82972e-13
-5.19346e-13
6.08587e-12
3.8882e-12
8.37355e-10
6.73453e-10
7.67956e-10
5.08447e-10
9.77049e-10
8.40661e-10
8.8527e-10
8.82151e-10
2.98434e-10
4.21221e-10
1.2472e-10
1.05153e-10
1.03748e-10
1.40148e-16
3.00731e-16
3.04591e-14
1.69624e-14
9.19033e-12
6.15148e-12
1.86849e-12
2.93091e-12
1.53927e-11
1.0107e-11
7.29299e-11
1.04374e-10
2.91165e-11
2.40592e-11
2.41365e-11
8.579e-13
5.44311e-13
4.09603e-12
6.1527e-12
3.15679e-12
4.01097e-12
6.07616e-12
6.35769e-13
9.94583e-13
1.31449e-12
-7.89996e-18
-4.43797e-17
1.28484e-15
2.27256e-15
2.24067e-14
1.06881e-14
2.37513e-14
4.12626e-14
-1.05587e-21
-5.31475e-22
2.00265e-29
2.66888e-29
-2.38492e-31
-3.09683e-32
-1.57649e-32
-1.39045e-29
-1.97574e-29
-2.30956e-29
-1.13077e-29
2.16186e-31
5.62284e-32
1.99084e-32
7.9767e-32
-4.22831e-34
-6.29726e-34
-1.93978e-35
2.40782e-35
-1.21373e-35
-3.29192e-35
6.40972e-33
7.48796e-33
6.01951e-33
9.23557e-33
-4.06685e-31
-2.14137e-31
8.46055e-15
5.09877e-15
2.47582e-16
1.38867e-16
1.34522e-18
1.35594e-18
6.59808e-18
8.27328e-18
4.18495e-17
7.4047e-17
1.8261e-19
1.80132e-19
1.09565e-20
1.02977e-20
2.56296e-25
3.86587e-25
-1.82706e-22
-1.71648e-22
-5.82379e-23
-4.48194e-23
-9.901e-25
-1.0464e-24
-5.53896e-31
-7.52307e-31
-1.62066e-36
-1.11494e-35
-1.50023e-36
0.000221602
0.00020065
0.00185983
0.00173094
0.000407952
0.000684429
0.000569143
0.000177888
-1.84621e-05
-3.98576e-06
0.000218726
-2.84555e-05
-1.14486e-05
-2.03887e-06
9.73472e-06
7.66898e-06
0.000570976
0.000696777
0.0019113
0.0017878
0.00129323
0.000896394
0.00261132
0.00254276
0.00204412
0.00262888
-4.38529e-05
-1.09594e-05
0.000180676
0.00028395
0.000689858
0.000874314
-1.38257e-05
2.34958e-06
2.71777e-05
0.000241072
0.000106173
0.000253504
0.000105058
5.30386e-05
-4.17063e-05
-2.69199e-05
-3.16668e-05
0.0025704
0.00289184
0.00224207
-2.17236e-07
8.53129e-08
2.11883e-06
0.000156637
0.00012523
5.90168e-08
8.10842e-08
7.19022e-10
4.82007e-10
4.22257e-20
-2.37167e-19
-2.23565e-21
-3.83859e-21
-5.63352e-23
-1.15124e-22
1.8762e-26
7.03753e-27
-2.38904e-24
-3.7691e-26
1.06521e-18
5.34547e-19
4.21539e-14
6.52769e-14
-2.99014e-19
-6.49897e-19
7.15591e-18
1.22524e-18
2.1077e-15
2.6387e-15
1.06032e-17
3.73982e-18
5.38927e-18
7.70451e-18
-6.01541e-26
-3.57091e-25
-1.32771e-29
-3.46424e-30
9.29383e-33
-1.5309e-32
6.39985e-27
1.18649e-28
1.03627e-27
-1.96354e-28
-4.84281e-30
-2.01945e-30
3.73782e-30
3.96133e-31
9.15333e-05
0.000104078
0.000128593
0.000114373
3.49721e-06
4.24202e-06
2.22951e-06
2.76116e-06
2.64461e-06
3.88206e-06
1.80225e-07
7.59577e-08
1.88496e-08
8.42715e-08
2.1853e-05
1.8862e-05
1.07603e-05
1.04869e-05
5.09479e-06
4.36371e-06
2.26223e-06
2.6096e-06
-1.26946e-09
-1.02597e-09
4.55203e-12
1.62776e-12
-5.91616e-08
-6.97273e-08
8.38578e-08
8.42097e-08
-8.61043e-09
-7.76538e-09
2.26884e-10
1.87946e-10
0.000105638
0.000100982
0.000782707
0.000968381
0.000851616
0.000412341
0.000464496
0.00104006
0.00111091
0.000633776
-6.25571e-07
9.89517e-05
9.89587e-05
0.000383397
0.000297665
0.000361692
0.000485701
0.000275399
0.000405107
0.000380217
3.9108e-05
-1.5129e-05
-8.20633e-06
3.71144e-05
-7.11278e-06
7.57188e-08
-2.98802e-09
-7.01782e-06
-5.89789e-06
1.56045e-07
0.000689897
0.000714169
2.70195e-06
-1.17876e-05
3.71718e-05
8.85912e-05
-1.07331e-05
-3.19334e-05
-2.24234e-05
-2.26027e-05
-1.81728e-05
0.00155505
0.00162353
0.000777514
0.000337084
0.000504567
0.000597885
0.00168369
0.00105354
0.00108337
0.000643538
0.00046712
0.000609733
0.000978765
0.00115663
2.27324e-05
1.78469e-05
7.77195e-05
5.21674e-05
8.29501e-06
6.36832e-06
-9.1537e-07
-1.65159e-06
2.37561e-08
-1.32634e-07
3.04931e-05
0.000413337
0.000486546
0.000368199
0.00028912
0.000480763
0.00044701
0.000327191
0.000467632
2.95038e-06
3.24103e-06
5.52785e-05
6.43623e-05
4.38361e-06
4.21484e-06
2.5339e-11
2.00664e-11
5.10719e-15
-8.43421e-15
2.55874e-07
3.29211e-07
-1.36113e-11
-1.00571e-11
9.22708e-09
1.23362e-08
2.81385e-10
3.00424e-10
-1.64983e-13
-6.55276e-13
7.22783e-14
4.83341e-14
1.55856e-13
1.42532e-13
1.50611e-13
1.05537e-13
-7.80127e-11
-1.04559e-10
6.76939e-09
9.15537e-09
3.34136e-09
4.57489e-09
1.19048e-09
1.74346e-09
3.12987e-07
4.08287e-07
4.31449e-07
5.57969e-07
9.05305e-07
1.15927e-06
4.23371e-07
3.23444e-07
1.33589e-06
1.31879e-06
4.5568e-07
5.27689e-07
6.03746e-07
4.72888e-07
1.11488e-07
8.61871e-08
6.14757e-08
6.00132e-08
5.0572e-08
6.62195e-08
6.6278e-09
4.86322e-09
1.03164e-08
1.38485e-08
1.67066e-18
9.53512e-19
-5.70004e-17
-3.6199e-17
1.27855e-13
8.19538e-14
4.78171e-12
6.87337e-12
2.22276e-11
3.18298e-11
-3.65921e-13
1.3407e-13
-1.06607e-13
-6.92848e-14
3.39811e-11
1.10976e-11
9.74476e-10
1.20547e-09
1.08692e-09
1.6171e-09
4.90048e-09
4.78206e-09
1.8216e-10
1.57526e-10
4.36863e-10
4.35347e-10
3.46341e-10
3.89085e-10
5.92112e-10
5.0068e-10
1.20394e-10
1.3484e-10
1.7763e-10
1.50329e-10
1.22219e-12
1.91558e-12
2.8918e-15
1.59782e-15
1.14596e-13
6.45435e-14
1.29059e-13
5.41489e-13
1.93105e-11
1.30936e-11
4.56462e-12
2.97365e-12
7.53834e-12
1.11788e-11
7.16292e-11
1.02839e-10
4.21719e-11
3.50472e-11
1.00366e-12
6.40368e-13
3.33602e-12
5.0385e-12
2.38163e-12
3.65809e-12
4.74161e-12
7.24523e-12
1.5441e-12
1.45666e-12
1.02938e-18
5.17644e-19
1.42675e-16
8.33021e-17
2.40583e-15
7.25499e-16
7.15096e-15
3.55164e-15
6.7989e-14
1.01038e-13
5.92027e-20
2.21706e-20
-2.94137e-24
-1.17259e-24
-2.33184e-31
-1.18944e-30
5.30454e-28
1.0293e-27
1.99549e-29
1.49789e-28
-4.20979e-30
-8.12222e-30
8.85145e-32
2.02077e-31
-7.0708e-31
-3.09063e-30
1.52923e-31
2.71761e-31
3.87313e-32
1.73877e-32
1.68081e-33
4.78751e-34
1.81069e-34
5.07226e-34
-1.35255e-31
-3.32386e-31
-4.78702e-32
-1.13941e-31
-4.25977e-32
-1.03824e-32
-1.95841e-31
-6.38892e-32
1.19266e-14
8.42966e-15
4.78721e-15
7.96038e-15
1.79916e-16
3.18636e-16
1.28312e-18
1.10067e-18
1.54621e-17
2.1088e-17
4.26377e-17
7.44051e-17
7.85052e-20
7.64124e-20
1.58357e-19
3.46872e-19
4.5358e-22
3.231e-21
8.88639e-21
6.49552e-21
-3.17334e-22
-3.36222e-22
-1.85349e-23
-1.85421e-23
-2.88513e-25
-2.92881e-25
1.30228e-27
2.6967e-27
-2.09815e-30
3.88742e-32
-1.02766e-32
-7.47169e-32
-2.87648e-35
0.000180068
0.000136165
-2.35749e-08
8.91343e-08
0.00298409
0.00293271
-1.03321e-05
2.75011e-07
0.00147324
0.000999799
0.000235799
0.000367179
0.00042853
0.000324904
0.000340479
0.000536013
-3.23708e-05
1.13479e-05
-4.72389e-05
-5.36015e-05
2.63828e-06
4.09751e-06
0.000353768
0.000340035
0.00100282
0.00114041
0.0012557
0.00113266
0.000787873
0.000833805
0.000867071
0.00111218
0.00277867
0.00252575
0.00195083
0.00182362
0.000433828
6.55156e-05
0.00291094
0.00211841
-3.97975e-05
-1.03483e-05
0.000461727
0.000377659
0.000469642
0.000867547
3.73945e-05
0.000102095
0.000192644
0.000407915
0.000561187
0.000471935
0.000320578
0.000170323
-1.43315e-05
-2.22977e-05
-5.30756e-06
8.67819e-07
-3.1036e-07
4.93285e-05
-3.11866e-05
0.00110055
0.000981017
-1.7108e-07