2.55418e-06 	7.78367e-06 	-2.42075e-07 	-4.30303e-24
7.63889e-06 	7.62695e-06 	-7.13105e-07 	1.5168e-24
1.2651e-05 	7.32932e-06 	-1.13984e-06 	1.89613e-25
1.75147e-05 	6.91936e-06 	-1.49846e-06 	-1.17657e-23
2.21013e-05 	6.44117e-06 	-1.76752e-06 	1.08345e-23
2.64157e-05 	5.93877e-06 	-1.96051e-06 	3.50636e-24
3.06315e-05 	5.40805e-06 	-2.0951e-06 	-2.60776e-24
3.48478e-05 	4.85496e-06 	-2.16929e-06 	1.10204e-24
3.91005e-05 	4.29572e-06 	-2.18058e-06 	1.48155e-24
4.33906e-05 	3.74668e-06 	-2.13563e-06 	-1.41987e-24
4.76916e-05 	3.22414e-06 	-2.04313e-06 	1.30488e-25
5.19955e-05 	2.7401e-06 	-1.91256e-06 	-2.04583e-25
5.62788e-05 	2.30356e-06 	-1.75402e-06 	1.6853e-24
6.0521e-05 	1.91979e-06 	-1.57754e-06 	5.35936e-24
6.47127e-05 	1.5896e-06 	-1.3918e-06 	-4.57849e-24
6.8847e-05 	1.31119e-06 	-1.20357e-06 	-5.69318e-24
7.29144e-05 	1.08183e-06 	-1.0187e-06 	-1.10573e-23
7.68944e-05 	8.97056e-07 	-8.41076e-07 	1.17703e-23
8.07192e-05 	7.55103e-07 	-6.76239e-07 	2.55228e-24
8.43946e-05 	6.51307e-07 	-5.21086e-07 	2.42814e-24
8.80572e-05 	5.70396e-07 	-3.71059e-07 	2.50962e-24
9.17183e-05 	5.12265e-07 	-2.28716e-07 	-8.42057e-24
9.5325e-05 	4.77094e-07 	-8.98236e-08 	-1.41328e-25
9.88876e-05 	4.63387e-07 	4.56881e-08 	-1.11737e-24
0.000102432 	4.69442e-07 	1.79911e-07 	-1.78075e-24
0.000105982 	4.95332e-07 	3.15239e-07 	-5.54847e-25
0.000109549 	5.42068e-07 	4.53666e-07 	6.95622e-24
0.000112559 	5.97965e-07 	5.73126e-07 	3.52877e-24
0.000114369 	6.38011e-07 	6.46218e-07 	1.93199e-24
0.000116788 	7.02565e-07 	7.4619e-07 	-3.45909e-24
0.000120464 	8.20283e-07 	9.02405e-07 	4.78181e-24
0.000124177 	9.68349e-07 	1.06602e-06 	7.9194e-24
0.000127925 	1.15033e-06 	1.2361e-06 	5.86681e-25
0.000131694 	1.3696e-06 	1.41023e-06 	6.00088e-24
0.000135463 	1.62692e-06 	1.58452e-06 	-6.25972e-24
0.000139191 	1.92364e-06 	1.75301e-06 	-4.43053e-30
0.000142851 	2.25225e-06 	1.9086e-06 	5.56933e-24
0.000146428 	2.60818e-06 	2.04691e-06 	1.05019e-23
0.000149882 	2.98396e-06 	2.16369e-06 	-4.92984e-24
0.000153204 	3.37446e-06 	2.25797e-06 	2.65821e-24
0.000156571 	3.78508e-06 	2.31894e-06 	-5.71885e-24
0.000160404 	4.28331e-06 	2.3637e-06 	1.15609e-23
0.000164499 	4.80341e-06 	2.34677e-06 	1.47043e-23
0.000168288 	5.29226e-06 	2.28951e-06 	1.56895e-23
0.000170678 	5.5955e-06 	2.23191e-06 	2.42846e-24
0.000172385 	5.80725e-06 	2.17743e-06 	5.00538e-25
0.00017513 	6.13578e-06 	2.07124e-06 	-1.15989e-24
0.000178326 	6.49321e-06 	1.9125e-06 	7.39015e-24
0.000181529 	6.82888e-06 	1.7163e-06 	-2.61492e-23
0.000185065 	7.15252e-06 	1.48238e-06 	3.58845e-23
0.000188877 	7.42437e-06 	1.1799e-06 	-2.21009e-23
0.000192719 	7.62184e-06 	8.47892e-07 	-2.99682e-24
0.000196566 	7.73942e-06 	4.95691e-07 	1.16454e-24
0.000200409 	7.77248e-06 	1.34589e-07 	5.59868e-24
0.000204216 	7.71904e-06 	-2.24934e-07 	-2.77699e-26
0.000207745 	7.58504e-06 	-5.33609e-07 	-1.70929e-23
0.000210937 	7.40282e-06 	-8.13321e-07 	7.39675e-25
0.0002141 	7.18228e-06 	-1.06745e-06 	1.33091e-24
0.000217366 	6.90162e-06 	-1.30328e-06 	1.21563e-24
0.0002207 	6.56872e-06 	-1.51507e-06 	2.13529e-24
0.000224137 	6.19028e-06 	-1.69366e-06 	-3.58286e-24
0.000227763 	5.75103e-06 	-1.84065e-06 	4.58588e-26
0.000231566 	5.26638e-06 	-1.94932e-06 	-1.11006e-23
0.00023545 	4.75702e-06 	-2.00829e-06 	1.53414e-23
0.00023933 	4.24413e-06 	-2.01513e-06 	-7.05833e-24
0.000243147 	3.75465e-06 	-1.97628e-06 	-3.32671e-24
0.000246883 	3.29615e-06 	-1.90352e-06 	6.46933e-25
0.000250549 	2.87201e-06 	-1.80315e-06 	1.74722e-24
0.000254153 	2.48563e-06 	-1.68096e-06 	7.23627e-25
0.0002577 	2.13873e-06 	-1.54339e-06 	-1.87904e-24
0.000261192 	1.83157e-06 	-1.39634e-06 	-6.70555e-24
0.00026461 	1.56387e-06 	-1.24546e-06 	8.94997e-24
0.000267898 	1.33533e-06 	-1.09892e-06 	-2.24786e-23
0.000271048 	1.15104e-06 	-9.56338e-07 	1.06343e-23
0.000274132 	9.93397e-07 	-8.15775e-07 	5.96271e-25
0.000277176 	8.61888e-07 	-6.79657e-07 	2.91181e-24
0.000279264 	7.39863e-07 	-5.47942e-07 	3.72581e-24
0.000280712 	7.54644e-07 	-5.1244e-07 	8.68341e-24
0.000282675 	6.73358e-07 	-4.90758e-07 	3.87636e-24
0.000284832 	6.21552e-07 	-3.6484e-07 	-3.3208e-24
0.000287142 	6.16319e-07 	-2.99978e-07 	-1.68825e-24
0.000288648 	5.34326e-07 	-2.86345e-07 	-3.31511e-24
0.000290456 	5.19411e-07 	-1.40313e-07 	-2.57647e-24
0.000293615 	4.80422e-07 	-1.6045e-08 	7.36406e-25
0.000296849 	4.60419e-07 	1.0598e-07 	-4.71121e-24
0.000300113 	4.57354e-07 	2.28156e-07 	-1.46741e-24
0.000303403 	4.71145e-07 	3.51425e-07 	-2.23335e-24
0.000306726 	5.02333e-07 	4.77097e-07 	1.03061e-25
0.000310089 	5.5209e-07 	6.06697e-07 	3.14273e-24
0.000313502 	6.22267e-07 	7.41625e-07 	3.08693e-24
0.000316972 	7.15485e-07 	8.83141e-07 	2.91034e-24
0.000319544 	7.99273e-07 	9.91938e-07 	2.51569e-24
0.000321324 	8.65967e-07 	1.07016e-06 	6.36529e-24
0.00032409 	9.7838e-07 	1.18912e-06 	2.05451e-23
0.000327326 	1.21343e-06 	1.37193e-06 	6.55185e-24
0.000330029 	1.24969e-06 	1.41378e-06 	-1.41916e-24
0.000332785 	1.46255e-06 	1.58147e-06 	-8.32115e-26
0.000335815 	1.67577e-06 	1.71708e-06 	-1.48348e-24
0.000338951 	1.92453e-06 	1.85467e-06 	-2.77456e-24
0.000342139 	2.20517e-06 	1.98822e-06 	-1.94361e-25
0.000345357 	2.51582e-06 	2.11323e-06 	-6.61069e-24
0.000348589 	2.85311e-06 	2.22442e-06 	8.29408e-24
0.000351805 	3.21319e-06 	2.3172e-06 	-6.19015e-24
0.000354805 	3.57886e-06 	2.37954e-06 	-1.38666e-23
0.000357546 	3.91556e-06 	2.42766e-06 	5.34528e-24
0.000360289 	4.26347e-06 	2.44705e-06 	2.94899e-24
0.000363149 	4.63039e-06 	2.445e-06 	-2.28509e-24
0.000366097 	5.01058e-06 	2.41686e-06 	-8.09415e-24
0.000369116 	5.39627e-06 	2.35737e-06 	1.04459e-23
0.000372201 	5.78087e-06 	2.26437e-06 	3.00217e-24
0.000375344 	6.15481e-06 	2.1359e-06 	-9.28378e-24
0.000378538 	6.50754e-06 	1.97099e-06 	1.16986e-23
0.000381766 	6.82979e-06 	1.77162e-06 	1.59656e-24
0.00038502 	7.11294e-06 	1.54041e-06 	-2.81572e-24
0.000388295 	7.34927e-06 	1.28114e-06 	-3.50235e-26
0.000391584 	7.53229e-06 	9.98678e-07 	6.5567e-25
0.000394885 	7.65675e-06 	6.98639e-07 	-1.75479e-24
0.000398194 	7.719e-06 	3.87463e-07 	-1.13134e-24
0.000401511 	7.71691e-06 	7.17075e-08 	3.01193e-24
0.000404835 	7.64971e-06 	-2.41822e-07 	1.55664e-24
0.000408171 	7.51693e-06 	-5.46082e-07 	2.72554e-24
0.000411522 	7.3221e-06 	-8.34774e-07 	-5.78729e-24
0.000414897 	7.0685e-06 	-1.10208e-06 	-5.09323e-24
0.000418308 	6.76062e-06 	-1.34286e-06 	-7.47772e-25
0.000421767 	6.40337e-06 	-1.55351e-06 	-9.09537e-24
0.000425284 	6.00164e-06 	-1.73058e-06 	-9.56827e-24
0.000428851 	5.56327e-06 	-1.86686e-06 	-3.86507e-24
0.000432433 	5.10453e-06 	-1.95958e-06 	-1.64217e-25
0.000435985 	4.64008e-06 	-2.00812e-06 	-1.10669e-24
0.000439475 	4.18565e-06 	-2.01589e-06 	-2.16701e-24
0.000442894 	3.74989e-06 	-1.98976e-06 	-1.08348e-24
0.000446248 	3.33732e-06 	-1.9346e-06 	4.06318e-24
0.000449547 	2.95162e-06 	-1.85497e-06 	-1.55057e-24
0.000452806 	2.59498e-06 	-1.75568e-06 	-8.25146e-24
0.000456035 	2.26833e-06 	-1.64109e-06 	-4.19772e-24
0.000459249 	1.97141e-06 	-1.51486e-06 	-1.12451e-25
0.000462474 	1.7028e-06 	-1.37973e-06 	7.40862e-26
0.000465751 	1.45931e-06 	-1.23734e-06 	4.51268e-24
0.000469163 	1.2403e-06 	-1.08686e-06 	1.31628e-23
0.000472574 	1.05224e-06 	-9.35062e-07 	1.14992e-23
0.000475755 	9.065e-07 	-7.96766e-07 	-7.21584e-24
0.000478756 	7.8911e-07 	-6.69524e-07 	-4.02541e-24
0.000481705 	6.92319e-07 	-5.48619e-07 	-3.09629e-24
0.000484642 	6.13307e-07 	-4.3119e-07 	-1.46048e-25
0.000487575 	5.50801e-07 	-3.17085e-07 	1.64045e-24
0.000490504 	5.03449e-07 	-2.06004e-07 	2.25876e-25
0.000493429 	4.70421e-07 	-9.74769e-08 	-1.4266e-25
0.000496348 	4.508e-07 	9.1758e-09 	3.26519e-25
0.000499259 	4.44211e-07 	1.14661e-07 	-3.46028e-26
0.000502161 	4.50309e-07 	2.19721e-07 	8.6252e-26
0.00050505 	4.68943e-07 	3.25073e-07 	3.12503e-28
0.000507925 	5.00275e-07 	4.31376e-07 	1.47311e-24
0.000510782 	5.44533e-07 	5.39209e-07 	1.25776e-24
0.000513624 	6.02155e-07 	6.49194e-07 	6.06636e-25
0.000516457 	6.7413e-07 	7.61996e-07 	-4.78668e-24
0.000519297 	7.61736e-07 	8.78275e-07 	-3.67185e-24
0.000522156 	8.66631e-07 	9.98599e-07 	4.40156e-24
0.000525035 	9.90238e-07 	1.12303e-06 	-3.77644e-24
0.000527928 	1.13356e-06 	1.25083e-06 	-1.70614e-23
0.000530782 	1.29735e-06 	1.3799e-06 	-3.43401e-25
0.000533371 	1.5055e-06 	1.517e-06 	-7.69288e-24
0.000535841 	1.62341e-06 	1.58801e-06 	-1.07896e-23
0.000539021 	1.88756e-06 	1.73423e-06 	2.225e-23
0.00054275 	2.22209e-06 	1.88794e-06 	6.52413e-24
0.000546423 	2.58375e-06 	2.02352e-06 	-1.07489e-23
0.000550275 	2.99658e-06 	2.14168e-06 	-1.14529e-24
0.000552493 	3.24974e-06 	2.19737e-06 	8.05414e-25
0.000554433 	3.5164e-06 	2.27332e-06 	-7.20701e-24
0.000557687 	3.87409e-06 	2.29467e-06 	-3.08182e-24
0.000560725 	4.26303e-06 	2.3135e-06 	3.17996e-26
0.000563781 	4.65967e-06 	2.30389e-06 	1.50292e-24
0.000566857 	5.05897e-06 	2.26512e-06 	1.28232e-25
0.000569947 	5.45407e-06 	2.19456e-06 	3.59237e-26
0.000573046 	5.83787e-06 	2.09101e-06 	3.55512e-24
0.000576156 	6.20345e-06 	1.95441e-06 	-2.89207e-24
0.000579277 	6.54396e-06 	1.78519e-06 	2.82806e-26
0.00058241 	6.85265e-06 	1.58513e-06 	7.48001e-28
0.000585551 	7.12263e-06 	1.35646e-06 	1.5212e-24
0.000588687 	7.34718e-06 	1.1036e-06 	-2.00177e-24
0.000591808 	7.51932e-06 	8.3147e-07 	4.91363e-27
0.000594916 	7.63778e-06 	5.47208e-07 	-7.30204e-25
0.000598017 	7.70113e-06 	2.54656e-07 	-2.88731e-24
0.000601122 	7.70818e-06 	-4.22897e-08 	-2.83779e-24
0.000604239 	7.65822e-06 	-3.39043e-07 	-3.39494e-24
0.000607363 	7.55083e-06 	-6.28574e-07 	4.18546e-25
0.000610487 	7.38867e-06 	-9.05028e-07 	-6.70518e-25
0.000613602 	7.17671e-06 	-1.16224e-06 	6.37555e-25
0.000616696 	6.92062e-06 	-1.39553e-06 	7.32006e-27
0.000619774 	6.62591e-06 	-1.60178e-06 	-2.09214e-24
0.00062284 	6.29845e-06 	-1.77872e-06 	3.51466e-24
0.000625889 	5.94529e-06 	-1.92442e-06 	-1.06119e-24
0.000628927 	5.57262e-06 	-2.03823e-06 	-1.20148e-25
0.000631956 	5.18673e-06 	-2.11995e-06 	-1.01504e-24
0.000634972 	4.79467e-06 	-2.17003e-06 	1.50323e-24
0.000637976 	4.40279e-06 	-2.18988e-06 	-1.01839e-25
0.000640968 	4.01683e-06 	-2.18159e-06 	-6.04551e-25
0.000643945 	3.64201e-06 	-2.14781e-06 	2.59652e-24
0.000646908 	3.28273e-06 	-2.09161e-06 	2.07021e-24
0.000649852 	2.94272e-06 	-2.01633e-06 	8.22914e-26
0.000652775 	2.62464e-06 	-1.92542e-06 	1.88011e-24
0.000655677 	2.33031e-06 	-1.82221e-06 	-1.72761e-26
0.000658546 	2.06158e-06 	-1.71013e-06 	7.06598e-25
0.000661372 	1.81957e-06 	-1.59253e-06 	-1.37068e-24
0.000664137 	1.60497e-06 	-1.47279e-06 	1.42948e-24
0.000666786 	1.43395e-06 	-1.34435e-06 	1.37472e-24
0.000669166 	1.29223e-06 	-1.24394e-06 	8.50796e-24
0.000671509 	1.15622e-06 	-1.15571e-06 	1.78037e-23
0.000673668 	1.02483e-06 	-1.04986e-06 	-2.40943e-24
0.000675216 	9.55736e-07 	-9.86012e-07 	1.41354e-24
0.000677378 	8.63722e-07 	-8.92571e-07 	9.98743e-24
0.000680447 	7.50027e-07 	-7.62202e-07 	7.50812e-26
0.000683628 	6.56469e-07 	-6.3256e-07 	-2.80476e-23
0.00068696 	5.77585e-07 	-5.00256e-07 	8.0905e-24
0.000690257 	5.19934e-07 	-3.73562e-07 	3.09212e-24
0.000693427 	4.79286e-07 	-2.54379e-07 	-3.43351e-25
0.000696541 	4.5522e-07 	-1.39529e-07 	-1.18836e-25
0.000699639 	4.46155e-07 	-2.62352e-08 	-2.09506e-24
0.000702759 	4.51593e-07 	8.78715e-08 	-7.59973e-25
0.000705918 	4.71773e-07 	2.04633e-07 	-5.35487e-25
0.00070908 	5.07656e-07 	3.21863e-07 	-1.09289e-23
0.000712189 	5.587e-07 	4.41215e-07 	-1.12789e-23
0.000715238 	6.27068e-07 	5.61078e-07 	-8.71594e-24
0.000718257 	7.12053e-07 	6.83132e-07 	-1.12393e-24
0.00072044 	7.84453e-07 	7.73579e-07 	2.07447e-25
0.000721944 	8.40138e-07 	8.36874e-07 	-4.12969e-24
0.000724266 	9.3559e-07 	9.36276e-07 	1.48968e-24
0.00072725 	1.07663e-06 	1.0667e-06 	-3.52119e-24
0.000730198 	1.23828e-06 	1.19806e-06 	1.59876e-23
0.000733111 	1.42127e-06 	1.32998e-06 	-1.53143e-23
0.000736049 	1.63265e-06 	1.46104e-06 	2.88989e-24
0.000739158 	1.88095e-06 	1.59733e-06 	3.45257e-25
0.000742547 	2.16511e-06 	1.73048e-06 	-5.51905e-24
0.000745999 	2.50268e-06 	1.86045e-06 	-1.086e-23
0.000749323 	2.85828e-06 	1.96817e-06 	5.51202e-24
0.000752577 	3.2309e-06 	2.05441e-06 	3.75761e-25
0.000755788 	3.61861e-06 	2.11739e-06 	-1.42311e-24
0.000758969 	4.01823e-06 	2.15427e-06 	-5.31364e-24
0.000762133 	4.42556e-06 	2.16243e-06 	-9.49923e-25
0.000765281 	4.83493e-06 	2.13974e-06 	1.72148e-24
0.000768214 	5.21443e-06 	2.08924e-06 	5.34662e-25
0.000769779 	5.41517e-06 	2.05346e-06 	3.18906e-26
0.000771546 	5.63596e-06 	1.99697e-06 	-1.43628e-25
0.000774673 	6.01536e-06 	1.87633e-06 	2.02771e-26
0.000777799 	6.37177e-06 	1.72282e-06 	-5.77458e-26
0.000780932 	6.6989e-06 	1.53761e-06 	-1.07364e-24
0.000784071 	6.99024e-06 	1.32277e-06 	1.93866e-24
0.000787222 	7.23969e-06 	1.08115e-06 	1.2545e-25
0.000790388 	7.44192e-06 	8.16191e-07 	1.40447e-24
0.000793565 	7.59156e-06 	5.32444e-07 	-1.33195e-24
0.000796749 	7.68393e-06 	2.3586e-07 	1.50185e-24
0.000799931 	7.71653e-06 	-6.70223e-08 	-1.37752e-25
0.000803112 	7.68924e-06 	-3.6965e-07 	3.87671e-26
0.000806293 	7.60301e-06 	-6.66155e-07 	3.7678e-26
0.000809472 	7.45977e-06 	-9.51005e-07 	4.57967e-26
0.000812653 	7.26233e-06 	-1.21897e-06 	1.84043e-25
0.000815835 	7.0148e-06 	-1.46472e-06 	-3.29022e-27
0.000819015 	6.72278e-06 	-1.6837e-06 	2.30852e-25
0.000822198 	6.39232e-06 	-1.87263e-06 	-5.46753e-25
0.000825388 	6.0299e-06 	-2.02907e-06 	-1.96143e-25
0.00082859 	5.6419e-06 	-2.15141e-06 	-3.00913e-25
0.000831821 	5.23351e-06 	-2.23891e-06 	-1.52957e-24
0.000835095 	4.81002e-06 	-2.29185e-06 	-1.0649e-25
0.000838417 	4.38065e-06 	-2.31045e-06 	-9.12944e-25
0.000841675 	3.95614e-06 	-2.28952e-06 	-3.79373e-24
0.000844548 	3.59983e-06 	-2.24173e-06 	-4.0011e-24
0.000847235 	3.29417e-06 	-2.19484e-06 	-1.95899e-23
0.000850529 	2.92037e-06 	-2.11873e-06 	1.04683e-23
0.000854095 	2.55181e-06 	-1.99974e-06 	1.86885e-23
0.00085665 	2.29953e-06 	-1.90872e-06 	5.80357e-24
0.000858164 	2.15553e-06 	-1.85219e-06 	4.64263e-24
0.000860237 	1.96904e-06 	-1.77006e-06 	-1.05048e-24
0.000863068 	1.73362e-06 	-1.65111e-06 	1.13289e-24
0.000865826 	1.52718e-06 	-1.53065e-06 	1.47606e-23
0.000868565 	1.34355e-06 	-1.40892e-06 	-1.86506e-23
0.000871318 	1.18033e-06 	-1.28551e-06 	-1.02497e-23
0.000874099 	1.03503e-06 	-1.16256e-06 	2.38714e-24
0.000876881 	9.08859e-07 	-1.04183e-06 	-6.34934e-24
0.000879658 	8.00556e-07 	-9.23931e-07 	7.75766e-24
0.000882432 	7.08577e-07 	-8.09095e-07 	-8.95226e-25
0.000885207 	6.31769e-07 	-6.97208e-07 	-2.05093e-24
0.000887992 	5.69012e-07 	-5.87855e-07 	-1.16514e-24
0.000890797 	5.19507e-07 	-4.80556e-07 	1.35169e-24
0.000893628 	4.82584e-07 	-3.74677e-07 	2.0422e-24
0.000896485 	4.58052e-07 	-2.69642e-07 	7.2291e-25
0.000899363 	4.46019e-07 	-1.64847e-07 	-5.86916e-25
0.000902267 	4.46528e-07 	-5.94033e-08 	-1.02405e-24
0.000905202 	4.59974e-07 	4.76146e-08 	7.72706e-25
0.00090816 	4.87209e-07 	1.57042e-07 	3.9561e-25
0.00091114 	5.29026e-07 	2.69641e-07 	-4.52962e-25
0.000913797 	5.79638e-07 	3.71709e-07 	1.38604e-24
0.000915269 	6.12586e-07 	4.28616e-07 	3.19647e-24
0.000916983 	6.56915e-07 	4.96864e-07 	2.51916e-24
0.000919755 	7.38806e-07 	6.10464e-07 	-1.2108e-25
0.000922539 	8.39984e-07 	7.27579e-07 	-2.94289e-25
0.000925412 	9.63159e-07 	8.50578e-07 	1.10061e-24
0.00092707 	1.04137e-06 	9.22459e-07 	-2.63571e-25
0.000928561 	1.12058e-06 	9.88028e-07 	-9.38275e-25
0.000931371 	1.28215e-06 	1.1121e-06 	6.11852e-25
0.000934426 	1.48216e-06 	1.24702e-06 	7.27281e-24
0.000937524 	1.71142e-06 	1.38178e-06 	-5.23972e-24
0.00094067 	1.97166e-06 	1.51432e-06 	2.76679e-24
0.000943857 	2.26423e-06 	1.64105e-06 	2.84581e-24
0.000947057 	2.58742e-06 	1.75561e-06 	-6.55651e-25
0.000950247 	2.9349e-06 	1.85506e-06 	6.17467e-25
0.000953428 	3.30453e-06 	1.93601e-06 	-2.03303e-24
0.000956623 	3.69632e-06 	1.99544e-06 	-6.90853e-26
0.000959838 	4.10746e-06 	2.02772e-06 	-2.08233e-24
0.000963063 	4.52901e-06 	2.02864e-06 	4.81154e-24
0.000966284 	4.95237e-06 	1.99632e-06 	-5.20109e-24
0.000969502 	5.37074e-06 	1.92952e-06 	2.72039e-24
0.000972726 	5.7776e-06 	1.82733e-06 	6.06384e-24
0.00097597 	6.16591e-06 	1.68978e-06 	5.9177e-24
0.000979254 	6.5323e-06 	1.51443e-06 	1.04039e-23
0.000982588 	6.86615e-06 	1.30146e-06 	1.69409e-24
0.000986036 	7.15852e-06 	1.04608e-06 	-8.09637e-24
0.000987884 	7.29303e-06 	8.984e-07 	-2.92045e-26
0.000989858 	7.42534e-06 	7.28804e-07 	1.77649e-24
0.000993908 	7.61919e-06 	3.73168e-07 	7.08803e-24
0.000998058 	7.72235e-06 	-1.71252e-08 	-7.20722e-24
0.00100195 	7.72538e-06 	-3.8344e-07 	-7.00904e-24
0.00100556 	7.65032e-06 	-7.19034e-07 	3.94407e-24
0.00100737 	7.59111e-06 	-8.86998e-07 	1.05234e-23
0.00100926 	7.49806e-06 	-1.05204e-06 	9.11715e-24
0.00101275 	7.28766e-06 	-1.34661e-06 	-2.95114e-24
0.00101617 	7.02203e-06 	-1.60912e-06 	-5.10813e-25
0.00101954 	6.70961e-06 	-1.83724e-06 	-1.14771e-24
0.00102287 	6.35921e-06 	-2.0287e-06 	1.9622e-24
0.00102617 	5.97998e-06 	-2.18219e-06 	-1.44506e-24
0.00102943 	5.58027e-06 	-2.29791e-06 	2.89483e-24
0.00103268 	5.16706e-06 	-2.37677e-06 	-4.52534e-25
0.00103591 	4.74784e-06 	-2.41963e-06 	-4.27781e-24
0.00103912 	4.33031e-06 	-2.42821e-06 	1.9559e-24
0.00104231 	3.92141e-06 	-2.40543e-06 	2.00482e-24
0.00104549 	3.52725e-06 	-2.35474e-06 	-2.02448e-24
0.00104864 	3.15316e-06 	-2.28025e-06 	-2.83049e-25
0.00105177 	2.80266e-06 	-2.18609e-06 	5.20578e-25
0.00105489 	2.47793e-06 	-2.0764e-06 	-8.67796e-25
0.00105799 	2.17979e-06 	-1.95497e-06 	6.10704e-25
0.00106108 	1.90843e-06 	-1.82522e-06 	2.14499e-25
0.00106416 	1.66412e-06 	-1.68988e-06 	-3.49201e-25
0.00106723 	1.44713e-06 	-1.5521e-06 	5.01898e-25
0.00107027 	1.25672e-06 	-1.41427e-06 	4.76422e-25
0.00107331 	1.09077e-06 	-1.27691e-06 	8.57542e-24
0.00107641 	9.43618e-07 	-1.13838e-06 	9.91309e-24
0.00107967 	8.12149e-07 	-9.9878e-07 	-3.59222e-23
0.00108304 	7.02183e-07 	-8.57678e-07 	-1.11084e-23
0.00108641 	6.1479e-07 	-7.2166e-07 	5.72336e-25
0.00108973 	5.4863e-07 	-5.91268e-07 	1.9933e-24
0.00109299 	5.01179e-07 	-4.66121e-07 	-5.93822e-25
0.00109621 	4.70758e-07 	-3.44958e-07 	-1.11591e-24
0.00109942 	4.56018e-07 	-2.26068e-07 	-4.19248e-25
0.00110261 	4.56635e-07 	-1.07998e-07 	8.13157e-25
0.00110579 	4.72641e-07 	1.08005e-08 	1.73448e-24
0.001109 	5.04668e-07 	1.32111e-07 	5.93497e-25
0.00111223 	5.54296e-07 	2.57483e-07 	9.62066e-24
0.00111551 	6.23789e-07 	3.88037e-07 	-6.98227e-27
0.00111884 	7.15066e-07 	5.2392e-07 	3.06416e-25
0.00112217 	8.3044e-07 	6.65933e-07 	2.9549e-24
0.00112547 	9.69715e-07 	8.10448e-07 	-1.53626e-24
0.00112873 	1.134e-06 	9.5668e-07 	-5.02234e-28
0.00113197 	1.32443e-06 	1.10269e-06 	1.55726e-24
0.00113518 	1.54184e-06 	1.2471e-06 	1.46898e-24
0.00113838 	1.78638e-06 	1.38757e-06 	-3.05559e-24
0.00114154 	2.05694e-06 	1.52098e-06 	1.32139e-24
0.00114465 	2.34991e-06 	1.64386e-06 	-1.02997e-24
0.00114768 	2.66141e-06 	1.75315e-06 	9.61201e-25
0.0011506 	2.98624e-06 	1.84813e-06 	-5.42179e-24
0.00115353 	3.32219e-06 	1.91636e-06 	-1.85097e-25
0.0011567 	3.72232e-06 	1.97487e-06 	3.20607e-24
0.00116009 	4.15244e-06 	2.00952e-06 	1.83875e-24
0.00116351 	4.59696e-06 	2.00934e-06 	-4.47599e-24
0.00116694 	5.04545e-06 	1.97136e-06 	8.64774e-25
0.00117038 	5.488e-06 	1.89392e-06 	9.0364e-25
0.00117382 	5.9151e-06 	1.7762e-06 	1.41202e-24
0.00117727 	6.31774e-06 	1.6184e-06 	-1.37392e-25
0.00118072 	6.68639e-06 	1.42186e-06 	3.38871e-25
0.00118418 	7.01164e-06 	1.18975e-06 	-5.82718e-25
0.00118764 	7.28451e-06 	9.26775e-07 	-5.5661e-25
0.00119108 	7.49758e-06 	6.39692e-07 	-3.1868e-25
0.00119449 	7.64547e-06 	3.36069e-07 	1.01518e-24
0.00119787 	7.72498e-06 	2.38292e-08 	8.96233e-25
0.00120122 	7.73703e-06 	-2.91743e-07 	-1.24162e-24
0.00120459 	7.68293e-06 	-6.07228e-07 	5.56938e-24
0.00120806 	7.55778e-06 	-9.18179e-07 	4.92668e-25
0.00121162 	7.36048e-06 	-1.21934e-06 	-2.17109e-24
0.00121525 	7.09393e-06 	-1.50041e-06 	-1.36088e-24
0.00121894 	6.76323e-06 	-1.7521e-06 	-2.14197e-25
0.00122268 	6.37532e-06 	-1.96742e-06 	-4.39878e-25
0.00122649 	5.93762e-06 	-2.14097e-06 	2.76369e-24
0.00123037 	5.4579e-06 	-2.26872e-06 	-2.48646e-24
0.00123436 	4.94352e-06 	-2.34628e-06 	5.71997e-24
0.00123849 	4.40306e-06 	-2.36931e-06 	-1.17849e-23
0.00124284 	3.84885e-06 	-2.34046e-06 	-3.44917e-23
0.00124716 	3.33181e-06 	-2.24349e-06 	1.98734e-23
0.00125115 	2.878e-06 	-2.12979e-06 	-4.53725e-24
0.00125493 	2.48017e-06 	-1.99851e-06 	-3.82254e-24
0.00125868 	2.12082e-06 	-1.8494e-06 	-9.94136e-25
0.00126246 	1.79922e-06 	-1.6855e-06 	-4.33428e-25
0.00126625 	1.51761e-06 	-1.51445e-06 	-1.70972e-24
0.00127003 	1.27615e-06 	-1.34161e-06 	-3.2745e-25
0.00127378 	1.0729e-06 	-1.1708e-06 	2.16262e-24
0.00127649 	9.46078e-07 	-1.04903e-06 	1.20015e-24
0.00127835 	8.70443e-07 	-9.67301e-07 	2.68405e-25
0.00128121 	7.67706e-07 	-8.43366e-07 	2.03382e-24
0.0012849 	6.59384e-07 	-6.88164e-07 	-6.98033e-26
0.00128854 	5.77385e-07 	-5.42211e-07 	7.20079e-24
0.00129207 	5.19121e-07 	-4.03604e-07 	1.06067e-23
0.00129551 	4.82717e-07 	-2.70563e-07 	-8.52593e-24
0.00129889 	4.65288e-07 	-1.41597e-07 	-4.16071e-27
0.00130227 	4.6567e-07 	-1.34832e-08 	4.90034e-27
0.00130571 	4.83821e-07 	1.17958e-07 	1.35825e-24
0.00130932 	5.26e-07 	2.58357e-07 	2.92901e-23
0.00131317 	5.95826e-07 	4.10754e-07 	-1.28592e-23
0.00131712 	6.90725e-07 	5.74125e-07 	1.2524e-23
0.00132106 	8.18972e-07 	7.4302e-07 	1.61627e-25
0.00132501 	9.8179e-07 	9.19129e-07 	1.74449e-23
0.001329 	1.18431e-06 	1.10069e-06 	4.54163e-26
0.001333 	1.43031e-06 	1.2849e-06 	-4.86252e-26
0.00133702 	1.72098e-06 	1.4677e-06 	2.30658e-26
0.00134102 	2.05588e-06 	1.64296e-06 	2.78317e-24
0.001345 	2.43389e-06 	1.80474e-06 	-9.15614e-25
0.00134896 	2.85156e-06 	1.94773e-06 	4.86113e-24
0.00135295 	3.30756e-06 	2.06124e-06 	-7.89875e-24
0.00135704 	3.81556e-06 	2.14152e-06 	8.87642e-24
0.00136121 	4.35691e-06 	2.17752e-06 	2.83568e-25
0.00136538 	4.90601e-06 	2.15986e-06 	-9.02307e-24
0.00136959 	5.44983e-06 	2.09191e-06 	4.86736e-24
0.00137394 	6.00122e-06 	1.95736e-06 	-1.18015e-23
0.00137842 	6.52111e-06 	1.74528e-06 	1.91066e-25
0.00138294 	6.975e-06 	1.46416e-06 	3.29145e-24
0.00138755 	7.35101e-06 	1.11304e-06 	-1.54632e-23
0.00139239 	7.63559e-06 	7.04547e-07 	-1.30336e-23
0.00139744 	7.79263e-06 	2.40418e-07 	-2.54606e-25
