/*--------------------------------*- C++ -*----------------------------------*\
  =========                 |
  \\      /  F ield         | OpenFOAM: The Open Source CFD Toolbox
   \\    /   O peration     | Website:  https://openfoam.org
    \\  /    A nd           | Version:  7
     \\/     M anipulation  |
\*---------------------------------------------------------------------------*/
FoamFile
{
    version     2.0;
    format      ascii;
    class       volScalarField;
    location    "1440";
    object      T;
}
// * * * * * * * * * * * * * * * * * * * * * * * * * * * * * * * * * * * * * //

dimensions      [0 0 0 1 0 0 0];

internalField   nonuniform List<scalar> 
238806
(
0.999192
1.00589
0.969701
1.32567
1.17684
1.00724
0.997921
0.993832
0.993758
0.972876
0.994291
1.18506
1.00221
0.999857
1.23876
1.21979
0.992972
0.986048
0.99206
1.00443
0.994043
0.99188
1.15
1.01164
1.18091
0.966402
0.978348
1.00581
1.07891
1.18645
1.00332
1.00346
0.99569
1.00236
1.00261
1.00261
0.99551
0.9956
0.998239
1.02934
1.0238
1.2732
1.00097
1.00094
1.00312
0.991275
0.986398
0.978978
1.00143
0.993543
1.00249
1.00369
1.00199
0.999177
1.01141
1.01433
0.967046
0.94783
0.986471
0.954023
0.968768
1.01115
0.981226
0.99324
0.994819
1.00356
1.00233
0.995344
1.00217
1.00169
1.00024
1.00029
1.00146
0.99106
0.99784
1.00573
0.995856
1.00452
1.00459
0.994677
0.996368
0.999158
0.995712
0.996444
0.990577
0.994433
0.995315
1.00648
1.03736
1.01174
1.00641
1.01359
1.00909
0.99751
0.995113
1.00464
1.00487
0.987573
0.975142
1.2866
0.991068
0.995088
0.992475
1.00238
1.00593
0.989492
0.988526
0.98852
0.991706
1.00247
0.999713
0.990725
0.997036
1.00402
1.00241
1.00237
1.00258
1.02995
1.03881
1.03525
1.05766
1.14522
0.990095
0.99519
1.00756
0.997875
1.14155
1.19856
1.00352
1.11225
1.02024
0.961458
0.980704
1.2948
0.963577
0.984347
0.99203
0.991906
0.962095
1.16221
1.09392
1.216
0.999431
0.997804
0.998294
0.993688
0.992841
0.993151
0.996016
0.994195
0.991525
0.996765
0.992352
0.992135
0.995922
0.98895
0.988346
0.997414
1.00119
0.994609
0.9926
1.00557
0.998176
1.00033
0.997887
1.00093
1.00091
1.00301
1.00104
0.988836
0.989019
0.99747
0.9946
1.07198
1.05647
1.11385
0.990173
0.996357
1.00224
0.996427
1.13793
1.19812
1.41083
0.97829
0.961524
0.984518
0.937994
1.11851
0.997307
0.998343
1.00271
1.00278
0.987387
1.03627
0.975214
0.963355
0.977555
1.17292
1.33841
1.07857
1.21359
0.995643
0.990328
0.997039
0.99804
0.995743
0.998539
0.990253
0.989357
0.991433
0.994909
0.982197
0.990481
0.997534
1.00009
1.00093
1.00038
0.980471
0.989628
0.994322
0.989377
0.995799
0.992586
0.989984
1.00466
0.997713
1.00019
1.00272
1.0027
1.0039
1.0039
0.995913
0.995933
1.00469
1.00469
0.994989
0.994982
0.990402
0.990367
1.00079
1.03368
1.08224
1.04043
1.00308
1.00265
0.991001
0.999782
0.99508
1.00082
0.996018
0.995804
0.992184
0.993408
0.998753
0.993766
0.996583
1.01907
1.01514
1.02589
0.995373
0.997627
1.00218
1.0028
1.0051
1.00413
0.98386
0.981945
1.00622
1.00288
0.983323
0.98393
0.99153
1.0705
0.989881
1.24878
1.10404
0.990283
0.995254
0.99261
0.993778
0.992787
0.994433
0.990352
0.98828
1.00255
1.00283
1.00176
0.999088
0.997791
0.999893
0.979363
0.986536
0.995758
0.998887
1.00088
0.998992
1.00057
0.99598
0.993639
0.984893
0.994418
0.999289
1.00577
1.00437
0.989153
0.988493
1.00449
1.00263
1.00561
0.993105
1.00141
1.00278
1.001
1.00274
0.996152
0.996827
0.99375
0.993677
1.00394
1.00393
1.00354
1.00357
0.996267
0.994599
1.00407
1.00387
0.994724
0.994731
1.03346
0.997277
0.996718
1.13415
1.10991
0.997191
0.997186
0.995088
0.995085
0.973004
0.972544
1.03965
0.977467
1.00764
0.998155
0.995559
1.00152
0.996757
0.996594
1.21061
1.23309
1.05388
1.26189
1.09567
1.09314
0.97135
1.07019
1.00582
1.00455
0.996152
1.00094
1.00095
1.00483
1.00445
0.995002
0.999144
1.0012
0.988517
1.13048
1.06336
1.16347
1.01663
1.01532
1.02124
1.00725
1.40571
1.118
1.06451
1.09366
0.996619
1.00389
1.01856
0.99756
1.00364
1.00143
0.997805
0.991817
0.997533
0.991116
0.987665
0.987568
0.987922
0.989117
1.00589
1.00199
1.00082
0.996603
1.00287
1.00256
0.995525
0.991552
0.996031
0.995125
0.983038
0.978994
0.990545
0.992472
0.99402
0.997357
1.00051
1.0005
0.993448
0.986449
0.978598
0.980023
0.991981
0.996783
1.00419
1.00341
0.990594
0.988695
1.0025
1.00429
0.997309
0.99584
1.00444
1.00447
1.00108
1.00276
0.9956
0.994404
0.994401
1.00396
1.00395
1.00314
1.00319
1.00467
1.00464
0.996517
0.996488
0.990226
0.990333
1.00387
1.00387
0.995709
0.994653
1.00357
1.00358
1.01214
1.01477
1.00867
0.993518
0.995994
0.899798
1.12387
1.08343
1.16494
1.0114
1.01432
0.991881
0.991869
0.967277
0.967772
1.12294
1.10584
1.18925
1.12023
0.960762
1.0447
0.994885
0.997478
1.00625
0.997179
0.996621
0.993413
0.98477
0.997098
1.02075
0.978762
1.15374
1.2653
0.939256
1.17582
0.981142
0.996963
0.993331
0.993342
0.991496
0.993832
0.993846
1.00526
1.00387
1.00115
1.00163
1.00437
1.00464
1.00717
1.00208
0.993704
0.98901
1.19652
0.987723
0.982904
1.00509
1.09472
1.25334
1.12299
1.22415
1.01955
1.04391
0.999516
1.00112
1.00112
1.01807
0.990619
0.995887
0.99088
0.990582
0.992005
0.995609
0.993324
0.99307
0.987715
0.989066
0.990042
0.990295
1.00277
1.00237
1.00257
1.00288
0.993212
0.992711
1.00258
1.00282
0.999536
1.0019
0.992986
0.99738
0.980448
0.978797
1.12712
1.11732
0.988748
0.990423
0.988461
0.98899
0.992254
0.989585
0.997967
0.994056
0.999282
1.00081
0.997624
0.991682
0.982267
0.978597
0.988797
0.98843
0.99019
0.994266
1.00352
1.00494
0.99673
0.999887
0.991772
0.989306
0.99025
0.986926
1.00482
1.00311
1.00195
1.00257
0.99248
0.995244
0.994423
0.995154
1.00262
1.00263
0.997622
0.998382
0.993336
0.993754
1.00153
1.00024
1.00413
1.00409
1.00289
1.00091
1.00383
1.00382
0.994181
0.994168
0.991553
0.996156
1.00426
1.00401
1.00407
1.00407
0.995485
0.995479
0.997358
0.997445
1.00225
1.00425
1.00195
0.999282
1.03076
1.04373
1.02831
1.08044
1.0001
0.996146
0.997989
0.994417
1.00955
0.993596
1.11297
1.07172
1.00369
1.00796
1.00053
0.999823
1.00485
1.00721
1.00027
0.999728
1.11207
1.11297
1.11467
1.10688
1.12545
1.11659
1.03103
0.992352
0.990119
0.991635
0.994679
0.994917
0.997359
0.996675
1.00644
0.997497
0.990403
0.989907
0.989682
0.993945
1.18918
1.19456
1.0115
1.00683
0.994639
0.979737
0.982493
0.998016
1.21437
0.996177
0.991685
1.03575
1.03905
0.99575
0.992537
0.991825
0.992159
1.00531
1.00374
0.996686
0.997237
1.00499
1.00428
0.989739
0.986576
1.011
1.01389
1.02227
1.09352
0.984854
1.27509
0.980357
0.991029
1.00971
0.891933
1.09336
1.01136
1.00543
0.989348
0.999007
1.27922
1.2369
0.99426
0.99436
0.997059
1.01508
1.00158
1.00358
0.996775
0.988032
0.995619
0.986958
0.998672
0.990755
0.98847
0.991888
0.992518
1.00198
1.00222
1.00176
1.00048
0.997455
1.00121
0.994542
1.00319
1.00013
1.00203
1.00259
1.00288
0.998859
0.99737
0.996475
0.992782
0.979666
0.981996
1.03098
1.06379
0.983471
0.991626
0.992053
0.989056
0.989281
0.991158
0.988695
0.988602
0.988939
0.990896
0.999746
0.99625
1.00014
0.996144
0.988205
0.981688
0.989839
0.988222
1.00413
1.00422
0.995152
0.993216
0.995251
0.994285
0.987819
0.989078
1.00533
0.99999
1.00262
1.00493
1.00019
0.994756
0.991688
1.00334
1.00258
1.00267
1.00441
0.99954
0.998519
1.00158
1.00109
0.989116
0.988738
1.04682
1.05408
1.06285
1.06243
0.997052
0.999119
1.00284
1.00291
1.00366
1.00363
1.0048
1.0048
0.996923
0.99692
0.99564
0.999141
1.00472
1.0044
0.988599
0.988604
0.993717
0.993792
1.001
1.00103
1.00386
1.00386
0.996528
0.996584
0.994426
0.994416
0.995515
0.995554
1.03639
1.03646
0.995248
0.995416
1.00434
1.0023
1.02745
1.0248
1.01605
1.0103
1.02599
0.994192
0.973092
1.04671
1.00945
1.00957
1.04112
1.08503
1.00061
0.996333
0.997234
0.995356
0.996543
0.998269
1.01862
1.00664
1.00038
1.01935
1.00384
1.00385
0.994622
0.994611
1.00367
1.00798
1.01153
1.01446
0.988748
0.986637
0.996606
0.996564
0.992062
0.991947
0.994471
0.994092
0.999229
0.998754
0.970158
0.96959
1.05551
1.0124
1.03639
1.00608
0.998339
1.01001
1.01468
1.03989
0.940488
1.00743
1.0079
0.9986
0.992636
0.994891
0.996377
0.997893
0.994094
0.99699
1.00551
0.989542
0.993645
0.996476
0.995549
0.994074
1.07276
0.998865
0.995855
0.978324
0.992638
1.00874
1.10737
0.9925
0.996655
0.93541
1.10843
1.00094
0.998498
0.993912
0.994437
1.0052
1.00399
0.997761
0.998302
0.992609
0.994064
0.997345
0.993871
0.981308
0.982406
1.04252
0.997914
1.0032
1.19444
1.3177
1.08411
0.993205
0.998892
0.982406
0.983475
1.06551
1.14244
0.968699
0.959886
1.03311
1.01735
1.01
1.01337
0.990377
0.994438
1.00068
1.03267
0.99478
0.992304
1.00558
1.00344
0.992212
0.989544
0.989284
1.00587
1.00588
1.00254
1.00255
0.99269
0.993824
1.00259
1.0028
0.992015
0.99625
0.981316
0.983952
0.977997
0.978827
1.04737
1.0146
0.98291
0.978731
1.00114
0.988391
0.989662
0.99303
0.99117
0.99393
0.990627
0.998579
1.00099
0.990705
0.997787
1.0034
1.00492
0.996383
0.994341
1.00077
0.997476
0.9978
0.995443
0.99367
0.995155
1.00506
1.00138
1.001
1.00269
1.00545
1.00276
1.0026
1.00208
0.996627
0.994724
0.999594
1.00273
1.00441
1.0034
1.00348
1.00278
1.00301
1.00226
0.986299
1.0469
1.05406
0.996471
0.99417
0.999119
0.99384
0.993936
0.994011
1.00346
1.00341
1.00388
1.00387
1.0043
1.00423
1.00381
1.00351
0.996307
0.994924
0.99584
0.999233
1.00467
1.00434
0.989353
0.9893
0.9963
0.999419
0.993448
0.993344
0.992198
0.992283
0.997081
0.997158
1.00292
1.00288
1.00428
1.00428
1.00406
1.00405
0.993936
0.991869
0.994641
0.995679
0.988544
0.988511
1.02386
1.02399
0.996304
0.996313
0.991749
0.991745
1.00003
1.00001
1.00455
1.00387
0.99472
0.995006
1.00809
1.0046
0.990521
1.01565
1.0215
1.0491
1.05557
1.03216
0.992499
1.01023
1.01047
0.995703
0.99429
0.996618
0.995567
0.993894
0.993682
0.996899
0.992315
1.10197
1.15684
1.0391
1.14637
0.98917
0.988791
1.00164
1.00386
0.995558
0.99571
1.01132
1.0142
1.00799
1.00368
1.01139
1.01429
0.99334
0.994582
0.994501
0.993608
0.99496
0.995278
0.996969
0.996952
0.992514
0.993431
0.996625
0.996894
0.991831
0.991917
1.00352
1.00399
0.984033
0.985744
1.11549
1.11486
0.96898
0.969731
1.03313
1.14936
0.98862
0.989327
1.00378
1.00121
0.994243
0.997997
0.999161
0.998268
1.0058
0.996999
1.00105
0.996829
0.986825
0.99659
1.06727
1.01494
1.06095
1.01676
0.96889
1.01358
1.0056
0.987885
0.999261
1.29396
1.04698
0.988823
1.03571
0.937316
1.11437
1.04266
1.0014
1.00107
0.996413
0.99078
0.996429
0.997013
0.999306
1.00245
1.00063
1.00004
0.999745
0.998585
1.02665
0.99381
0.995268
1.00898
0.984279
1.00779
0.990646
0.97278
1.02254
0.945479
0.99538
1.00765
1.00977
1.0042
1.00334
0.985203
0.989928
1.00847
1.06728
0.997384
0.981775
1.10453
1.00041
1.00331
0.994126
0.989866
1.00588
1.00116
1.00289
1.00581
1.00329
1.00226
0.994768
0.996455
0.989723
0.989669
0.998648
1.00165
1.00256
1.00274
1.00195
0.999816
0.98991
0.993386
0.979051
0.979995
0.978321
0.97927
1.10598
1.17609
0.977513
0.980016
1.00614
1.03003
0.988515
0.99042
0.989912
0.991853
0.999292
1.00124
1.00496
1.00402
1.00244
0.99978
0.99605
0.998893
0.992718
0.990191
1.00295
1.00474
1.00481
1.00234
1.00267
1.00132
1.0027
1.00527
1.00218
1.00271
0.99341
0.993697
1.00279
1.0013
1.00281
1.00443
1.00038
1.00322
0.986413
1.00252
0.995792
0.994291
0.994053
0.993942
0.993742
0.993971
0.988588
0.989241
0.998702
1.00118
1.00336
1.00278
1.00297
1.00302
1.00359
1.00308
1.00452
1.00457
1.00415
1.00412
0.995783
0.995852
0.99498
0.996352
0.992991
0.992899
1.00388
1.00367
1.00391
1.00371
1.00483
0.999335
0.999382
0.999405
0.999403
0.992081
0.995029
0.994954
0.990492
0.990564
0.993863
0.995402
1.00399
1.00381
1.00383
1.00384
0.996494
0.996554
1.00303
1.00303
1.00437
1.00436
0.998559
0.998623
0.992696
0.994454
1.00376
1.00377
0.995975
0.995722
0.988498
0.99549
1.02402
1.02398
1.01717
1.01717
0.993135
0.993132
0.992072
0.992104
0.994765
0.995146
1.002
0.999229
1.0038
1.00455
0.999247
1.0019
0.995591
0.994802
1.02841
1.03826
0.991666
0.981509
1.0408
1.01612
0.965708
0.98996
1.07509
1.0152
1.03232
0.978849
1.05243
0.996423
1.00329
0.98997
0.989159
1.01118
1.02693
0.987406
0.994982
0.996096
0.998194
1.00015
1.27307
1.02457
1.05873
1.02507
1.07007
1.2899
1.19971
0.986093
0.98073
1.0016
1.00155
0.998237
0.992415
0.986314
0.986094
1.00308
1.00363
0.992655
0.993613
1.00799
1.00367
0.993263
0.99472
0.993587
0.994492
0.999335
0.99888
0.995091
0.995256
0.996986
0.997019
1.07846
1.07865
1.06697
1.08233
1.00496
0.995527
0.992064
0.992274
0.996203
0.995835
0.993802
0.99443
0.996655
0.998138
1.11403
1.11478
0.975055
0.976839
0.988505
0.988983
1.02102
1.00565
0.998276
0.998283
0.996963
0.998692
0.99424
0.99747
1.00605
0.997042
1.01255
0.996826
0.993744
0.996258
0.964311
0.978262
0.983751
1.00053
1.00508
1.01933
1.00465
1.00584
1.01028
0.974557
0.982913
1.04396
1.04287
0.997354
1.00504
1.00022
1.00312
1.00205
0.998809
0.997501
0.999604
0.999482
0.993262
0.995762
0.998049
1.00863
1.0362
0.988768
1.01233
1.00544
1.02457
1.02113
1.01379
0.988798
1.01201
1.06068
1.16522
1.18811
1.04726
1.08188
1.00245
0.999895
0.997149
0.985033
0.991537
0.988528
0.967718
0.990955
1.02617
1.00043
1.2039
0.986219
1.0037
0.994364
1.00112
1.00356
1.00587
1.00669
1.00125
1.00195
1.00595
1.00289
0.998589
1.00243
1.00582
0.992488
1.00349
0.990799
0.992629
0.991865
0.99364
1.00142
0.998047
0.994938
0.997678
0.986911
0.982682
0.982581
0.98614
1.00523
0.985994
1.10157
1.06081
1.14469
1.17186
1.00987
1.08825
1.05699
0.994039
0.98841
0.989317
1.00382
1.00497
0.999118
1.00234
0.99576
0.993804
0.995018
0.996783
0.993413
0.991049
1.00279
1.00464
1.00262
1.00479
1.0027
1.00512
0.993684
0.994538
1.00277
1.00118
1.00316
1.00259
0.995371
0.996557
0.996906
0.996405
1.03008
1.03297
1.04906
1.04573
1.0132
1.00981
0.993359
0.99161
0.995558
0.995503
0.996791
0.995484
1.0023
1.00245
1.00381
1.00379
1.00425
1.00422
1.00355
1.00351
1.00385
1.00348
1.0036
1.00447
1.00324
1.00329
1.00345
1.00348
1.04927
1.04932
0.995873
0.995892
0.996508
0.995997
1.04952
1.05145
0.988752
0.988821
0.993174
0.993266
0.999523
0.997507
1.0039
1.0037
1.00393
1.00375
0.989367
0.989466
0.996087
0.991466
0.988603
0.989193
0.992009
0.99189
0.995327
0.995253
1.00394
1.00377
1.00403
1.00431
0.998664
0.998608
1.00427
1.00302
1.00385
1.00386
1.00439
1.00438
0.996798
0.996798
0.989885
0.989795
0.994275
0.992442
0.990839
1.00064
1.00062
0.995496
0.995489
0.993173
0.993177
0.999153
1.00042
1.02329
1.02284
1.02386
1.02363
1.03657
1.03663
0.99747
1.01733
0.994489
0.994493
0.99443
0.994595
1.00135
1.00136
1.0015
0.998691
1.00395
1.00455
0.995002
0.994994
0.999114
1.00177
1.00384
1.00455
1.00444
1.00308
0.995069
0.995788
1.02942
1.02663
1.02973
1.03674
1.02934
1.01912
0.994114
1.00584
1.00511
1.03805
1.0072
1.06518
1.02496
1.00069
0.996172
0.995755
0.984733
0.987279
0.990308
0.982828
0.993037
0.989918
1.00162
1.0059
0.996103
0.994414
0.994219
0.994548
0.99982
1.00732
1.00171
1.0491
1.0211
1.03827
1.16648
1.02636
1.00448
1.00777
1.12227
1.04088
0.984065
0.982427
0.996115
0.995606
1.00201
1.00385
0.993575
0.993524
0.984698
0.984533
1.00362
1.00362
1.01255
1.03274
0.993578
0.992638
1.01137
1.01427
1.01147
1.01439
0.992533
0.99329
0.993165
0.993028
0.994458
0.993527
1.0021
1.00209
0.99547
0.994652
0.995328
0.995399
0.99618
0.996108
0.999057
0.999071
1.08084
1.07687
1.07805
0.995532
1.00485
0.996592
0.996541
0.996471
0.995887
0.99377
0.993464
1.0072
1.00725
1.10759
1.1088
1.00404
1.00538
0.971909
0.972813
1.03406
1.03439
1.2106
1.22768
0.990876
0.992475
1.01306
1.01253
0.994533
0.997209
1.00245
1.00348
0.994582
0.996974
1.00676
0.997966
0.993605
0.993282
1.18866
1.18188
0.977212
1.01467
0.992672
0.996463
1.0028
0.999779
1.00301
0.992624
0.991626
1.01064
0.998034
1.01393
1.15901
1.19013
0.995058
0.982832
0.985083
1.01613
1.13235
1.09649
1.21266
1.1831
1.1742
1.00309
0.99955
0.982834
0.980789
0.980466
0.98171
0.99521
1.0117
1.00735
1.11749
1.00445
0.984688
0.98733
0.994759
0.997516
1.00711
1.00072
1.00599
1.0007
0.996395
1.00224
1.00594
0.999338
1.00277
0.994501
1.00279
1.00306
1.00562
0.99089
0.990585
0.989945
0.994541
1.00067
1.00061
0.999443
0.996204
0.9917
0.978587
0.979553
0.993198
1.00592
1.18538
1.17805
1.03946
0.979728
0.980214
1.00555
1.00307
1.0046
1.00364
1.00497
0.997019
0.994846
0.99464
0.99585
1.00262
1.00468
1.00029
1.00122
0.999943
0.999957
1.00248
1.00208
0.996022
0.996052
0.999115
0.999109
0.994107
0.994067
1.06102
1.0381
1.01983
1.02355
0.998119
0.997248
1.04263
0.992282
0.99284
0.991801
0.993544
0.990085
0.990004
0.994442
0.994227
0.992489
0.992542
1.00097
0.998482
1.00423
1.00468
1.00329
1.00323
1.00377
1.00396
1.00418
1.00384
1.00383
1.00157
1.0017
1.00469
1.0048
1.00455
1.00452
1.0038
1.00378
0.992533
0.992543
0.996465
0.996442
0.996095
0.99609
0.996911
0.995163
0.99647
0.991735
0.991894
0.99598
0.99437
0.991331
0.989769
1.00387
1.00365
1.00357
1.00454
1.00409
1.00408
1.00392
1.00374
1.00414
0.999025
0.999108
0.996343
0.996571
0.98915
0.989108
0.989891
0.990064
0.992105
0.990415
1.00427
1.00432
1.00397
1.00379
1.00424
1.00082
1.00076
0.998769
0.998815
1.00097
1.00405
1.00404
1.00484
1.00485
1.00438
0.994207
0.995272
0.993295
0.993169
0.989169
0.988662
0.990567
0.990722
0.997963
0.997977
1.0102
1.03665
0.993412
0.993737
0.99376
0.994395
0.994487
0.995597
0.995518
0.98849
0.98849
1.0225
0.995309
1.03699
1.03721
1.01744
1.01756
1.03651
1.02395
0.993187
0.993151
0.99404
0.99404
0.996247
0.99625
1.00168
1.00168
0.99517
0.995165
1.00356
1.00382
0.999811
1.00175
0.998121
0.997953
0.999301
1.00207
0.996825
0.995255
1.00322
1.00329
1.00376
1.00455
0.994728
0.995006
1.00051
0.997632
1.00104
1.00026
1.01684
0.997564
1.00666
0.995899
0.996098
1.01459
1.01535
1.00141
1.00224
1.00476
1.00881
1.03062
1.12639
1.00418
1.08155
0.955615
0.907853
1.00825
1.00843
1.002
0.994477
0.984283
0.984919
1.00933
1.00608
0.982647
0.98318
1.00001
0.985845
1.01226
1.1081
0.999174
1.00109
0.995734
0.995277
1.00893
1.00141
0.996907
1.01442
1.01425
0.990681
1.02175
1.02492
1.05227
0.998983
1.03123
1.01296
0.999018
1.00497
0.998194
0.990742
0.988801
1.0038
1.00382
0.996811
0.999555
0.985803
0.980406
0.995315
0.997191
1.0169
1.01688
0.990225
0.990169
0.985476
0.985347
0.990971
0.990897
1.00307
1.00307
0.999692
1.00388
0.993548
0.992624
0.995503
0.994882
1.01136
1.01425
0.999412
0.996756
1.01152
1.01444
1.01224
1.01513
0.993433
0.993277
1.03413
1.03356
0.988701
0.986844
0.988697
0.986759
0.987313
0.987458
1.00332
1.00343
0.997028
0.996317
0.995156
0.995122
0.995495
0.995556
0.997239
0.997225
0.992013
0.991709
0.996237
1.00007
1.00724
1.00509
1.00256
1.00247
1.00415
1.00582
0.992405
0.992261
0.996583
0.997027
1.00378
1.00415
1.10999
1.11099
0.984852
0.981133
1.00407
1.00493
0.970262
0.971012
1.034
1.03363
0.992059
0.991817
0.990213
0.988765
0.999111
1.00561
0.999943
0.995706
0.998955
1.00002
1.11168
0.994683
0.994186
1.0065
0.998513
1.00664
0.998334
1.00596
0.995811
0.98831
0.996576
1.01137
1.1802
1.01003
1.03817
1.22135
1.28688
1.00179
1.02944
1.17569
0.988552
0.992356
0.984507
0.994962
0.974247
0.970887
1.02104
0.98104
1.12451
1.02636
1.001
0.99283
0.99225
0.997244
1.00523
1.00083
1.00593
0.996619
1.00248
1.00049
1.0026
1.00153
1.00582
1.00337
0.997978
0.991369
0.987145
0.999851
1.00069
0.988458
0.985082
0.980482
0.984445
1.16155
1.08314
0.984753
1.00444
1.00356
1.00326
1.00487
0.998262
1.00154
1.00266
1.00155
0.999901
0.999455
1.0037
1.00535
1.0037
1.00317
0.995126
0.99555
1.00381
1.0064
0.996389
0.996398
0.996565
0.996584
0.996509
0.996541
0.995865
0.996016
0.994674
0.994536
1.03419
1.03163
1.06302
1.02694
1.03967
1.03688
0.982344
0.983184
0.991897
0.993635
0.991706
0.993451
0.99564
0.995389
0.989596
0.989626
0.990902
0.990945
0.996785
0.996946
1.00473
1.0047
1.00286
1.00409
1.00391
1.00398
1.00265
1.00272
1.00398
1.004
1.00336
1.00143
1.00404
1.00402
1.00419
1.00421
1.00395
1.00394
1.02117
1.02202
0.996006
0.996016
0.996913
0.996904
0.996499
0.995984
0.996559
0.996051
0.996432
0.995099
0.984627
0.984239
0.994315
0.998252
0.994447
0.996072
0.989924
0.991517
1.00395
1.00469
0.999426
0.997414
1.00447
1.00342
1.00438
1.0047
1.00406
1.00389
1.00444
1.00475
1.00392
1.00373
0.991337
0.991458
0.997104
0.997234
0.991858
0.992146
0.999366
0.996185
0.99518
0.995104
0.991748
0.991595
0.996799
0.996863
1.00306
1.00314
1.00395
1.00378
1.00423
1.00421
0.996674
0.996735
1.00486
1.00486
1.00435
1.00434
1.00485
1.0047
0.996553
0.996567
0.993299
0.993106
0.989974
0.993398
0.988939
0.988693
0.992583
0.99437
1.00298
1.00298
1.00263
1.00261
1.00427
1.00464
0.996732
0.996731
0.994621
0.995637
0.99415
0.99428
1.03844
1.03851
0.988499
0.98851
0.995206
0.995133
0.995463
0.995671
0.995877
0.996053
0.997516
0.997576
0.994491
0.994495
0.995308
0.995302
0.996646
0.996797
0.995408
0.995557
0.996139
0.99577
0.998911
0.998915
0.99477
0.994779
1.0016
0.998768
1.00428
1.00225
1.00072
1.00049
0.999347
1.00209
0.995214
0.995195
0.996813
0.996821
0.994729
0.99499
1.00185
0.999187
0.996215
0.99507
0.997664
1.00049
0.995661
0.995649
1.00131
0.99396
0.998196
0.993252
0.998158
0.996117
0.995331
1.05097
1.04315
0.996165
0.996895
1.05735
1.07465
0.995703
0.978694
1.00883
1.01518
1.03664
1.05166
1.05115
1.02008
1.03098
1.00527
1.04386
1.08407
0.994325
0.99491
0.985745
0.988728
0.996125
0.986601
0.986242
0.987576
1.01671
1.01711
1.00577
1.01973
0.990737
0.983448
0.994992
1.00051
0.979246
1.04346
0.987282
1.00141
1.00208
1.11078
0.999337
0.997861
0.992566
0.997991
0.996085
0.994363
0.994378
1.00018
0.992301
0.995643
1.00209
1.00456
1.06964
1.09513
1.09381
1.05166
1.21515
1.1614
1.29281
1.00167
1.00326
0.994961
0.996395
0.987955
0.987459
0.99005
0.98557
1.00279
1.00282
1.00173
1.00389
1.02853
1.03256
0.989682
0.985974
0.995284
0.995261
1.00252
1.00252
0.998041
0.998142
0.993799
0.993855
0.994645
0.994716
0.986282
0.984634
0.990817
0.990738
1.00173
1.00175
0.984987
0.989919
0.995216
0.994067
0.999565
1.00375
0.987212
0.987043
0.994327
0.994239
1.00797
1.00368
1.01133
1.01422
0.995472
0.994775
0.99676
0.999415
1.01148
1.01442
1.01177
1.01468
0.993363
0.994802
1.00099
1.00162
0.996301
0.998384
0.988721
0.986851
0.988694
0.986822
0.991754
0.995983
0.995968
1.00263
1.00273
0.994962
0.995056
0.996342
0.995971
0.996353
0.996345
1.0043
1.00432
0.993601
0.993598
0.9922
0.992744
0.992364
0.992982
0.992132
0.993666
1.00714
1.00448
1.05438
1.09096
0.979173
0.969704
0.999744
0.999752
1.00684
1.00727
0.992021
0.992105
1.00222
1.00297
0.995355
0.994883
1.00616
1.00587
0.968301
0.968493
0.968545
0.968369
1.03261
1.032
1.00001
0.997765
0.992929
0.994948
0.970753
0.971562
1.14844
1.17601
1.18203
0.991114
0.985168
0.996122
0.996455
0.997169
0.997096
1.00586
1.00613
1.00017
1.00356
0.993354
0.991009
0.99221
0.991859
1.01371
1.18576
1.21168
1.14127
1.12135
1.13088
1.16936
1.0013
0.994015
1.01822
1.01838
1.02987
1.00683
1.00263
0.996404
0.989186
0.99262
0.992855
0.99199
0.997775
1.00295
1.00083
1.00605
1.00267
0.999935
0.98837
0.98339
1.00025
0.998861
0.999366
1.03201
1.00426
1.00387
1.00066
1.00049
0.993974
0.993526
1.0048
1.00482
0.992802
0.992855
1.00309
1.00252
0.994748
0.994998
1.04951
1.05065
0.994997
0.995643
0.995828
0.995813
0.996405
1.00349
1.00426
0.995444
0.996578
0.994289
0.994262
0.995154
0.995136
0.995438
0.994128
0.996776
0.995804
0.994225
0.994657
0.995196
0.994414
1.06292
1.06247
0.995347
0.994576
0.997867
0.997772
0.991992
0.993726
0.990166
0.990172
0.990311
0.991899
0.992058
0.988736
0.988761
0.99088
0.990847
1.00044
0.997671
0.99534
0.995513
1.00422
1.00411
1.0049
1.00492
1.00405
1.004
1.00374
1.0037
1.00265
1.00065
1.00117
1.0013
1.00479
1.0048
1.00441
1.00438
1.0039
1.00389
1.00337
1.00341
1.00447
1.00444
1.00397
1.01816
1.01776
1.00487
1.00434
0.992561
0.992582
0.996774
0.99594
0.996349
0.996497
0.995971
0.996539
0.996032
0.994883
0.994216
0.991971
0.998925
0.993004
0.995103
0.995882
0.99997
0.990913
0.991074
0.988782
0.988796
0.991239
0.989694
0.991424
0.989847
1.00385
1.00361
0.999334
0.997327
1.0045
1.0035
1.00436
1.00469
1.00368
1.00482
1.00483
1.00412
1.0041
0.992855
0.992782
0.992754
0.992905
0.988672
0.98866
0.989015
0.988919
0.996293
0.9994
0.989484
0.989491
0.993547
0.993638
0.996933
0.997003
1.00422
1.003
1.00477
1.00475
1.0048
1.00426
1.00425
0.996369
0.996431
0.998719
0.996614
1.00486
1.00485
1.00471
1.00472
0.995147
0.994178
0.989932
0.989703
0.9987
0.998779
0.988734
0.988748
0.988797
0.99038
0.988655
0.989243
1.00392
1.00392
1.0007
1.0007
1.00456
1.00456
0.993637
0.9957
1.0039
1.00389
0.992876
0.992072
0.994305
0.996181
0.996171
0.996503
0.996518
0.994604
0.995591
0.9932
0.99325
0.988552
0.988752
0.995136
0.995118
1.0223
1.02226
0.988839
0.988799
0.995609
0.988882
0.996259
0.996254
0.995309
0.995324
0.994035
0.99314
0.993979
0.994132
0.99623
0.996392
0.996172
0.996322
0.996349
0.992954
1.00385
1.00385
0.994835
0.995253
1.00378
1.00365
1.00183
0.999822
1.00002
0.995067
0.995054
0.999354
1.00208
0.995017
0.995008
0.995257
0.995256
0.993503
0.993428
0.996531
0.995157
0.99774
1.00075
1.00304
1.00444
1.00244
0.999443
1.00009
1.00092
1.00242
0.996563
0.997866
0.993068
1.05544
1.05402
0.988968
0.996878
1.00004
1.03771
1.0631
0.996491
0.993118
0.989691
1.00326
1.00921
0.981246
1.0144
1.00028
0.890654
1.04232
1.02457
1.04543
1.05527
0.969401
0.994792
0.994474
1.01285
1.01524
0.994428
0.995387
1.00451
1.0073
0.998474
0.997717
0.99083
0.99198
0.984895
0.984622
1.00356
1.00464
1.00967
1.00971
1.01644
1.00563
1.01936
1.01316
1.00655
0.990108
0.990431
0.991644
1.00092
0.996835
1.0112
1.00356
1.01022
1.00037
0.986979
0.975708
0.980207
1.17585
1.05927
0.996071
0.995425
0.99043
1.00046
0.999426
0.997748
0.996605
1.00111
1.02693
0.994698
0.995463
1.00465
1.02259
1.06214
1.09856
1.11668
1.12512
1.27765
0.981941
0.973281
0.980326
0.986102
1.03235
1.03521
0.980765
0.991709
0.985881
1.00266
1.00155
0.994074
0.989719
1.00274
1.00308
1.00307
1.05869
1.05764
0.986427
0.990284
0.990991
0.991076
0.988452
0.994231
1.00251
1.00201
1.00382
1.00382
0.992315
0.992221
0.996005
0.995995
0.994359
0.994461
0.987795
0.98769
1.00564
1.00569
0.996453
0.996539
0.994524
0.994531
1.00172
1.0017
1.00255
1.00254
0.990716
1.01198
1.03224
0.993876
0.995108
1.00802
1.01131
1.01418
1.03796
1.03324
0.994411
1.00797
1.00367
0.999407
0.996748
1.00808
1.00373
0.99328
0.992527
1.01206
1.01494
0.996796
0.999785
0.992496
0.992468
1.03512
1.02117
1.00299
1.00414
0.998594
0.996504
0.991863
0.991904
0.991797
0.991838
0.994258
0.994304
1.00223
1.00223
0.995054
0.995141
0.998316
0.997743
0.994549
0.996808
0.995994
0.996379
0.996193
0.996202
0.996319
0.996314
1.00377
1.00375
0.995116
0.995109
0.99215
0.992659
0.992314
0.992889
0.994091
0.992359
1.0003
0.996433
1.00465
0.991268
1.06089
1.08684
1.04434
1.09777
1.03728
1.10268
1.00272
1.00202
0.996622
0.996676
0.995123
0.99522
0.992528
0.992259
0.991798
0.991782
1.00553
1.00603
0.997516
0.998066
1.00714
1.00694
1.00279
1.00333
0.978301
0.978747
0.973752
0.974642
1.03135
1.03119
0.999715
1.00233
1.00619
1.00681
0.982195
0.980239
0.961189
1.23809
1.1832
1.20282
0.990807
0.992522
0.994829
0.995138
0.997511
0.996556
0.995861
0.996511
0.986676
0.996021
0.998846
1.0016
1.00051
1.00622
1.0092
1.00477
0.999089
0.990244
0.997794
1.02077
1.26785
1.16612
1.23468
1.06848
1.09394
1.22595
0.968823
1.0063
0.990084
0.990676
1.00145
1.00361
0.992944
1.00295
0.997101
0.98315
0.98026
0.999423
0.998474
0.992252
0.991721
1.00332
1.00332
0.992606
0.992673
1.00324
1.00374
0.995144
0.995571
1.00427
1.00422
1.04501
1.05127
0.999964
1.00137
0.985943
1.04741
1.0537
0.996169
0.996162
1.00001
1.00009
0.998021
0.997971
0.99552
0.996592
0.994321
0.996973
0.996974
0.996688
0.996725
0.995452
0.99422
0.994374
0.995953
0.996768
1.02689
1.0247
1.04035
1.06007
1.02921
1.00703
0.993634
0.996084
0.997875
0.998285
0.997299
0.999374
0.990248
0.990331
0.990037
0.989552
0.989665
0.988624
0.988609
0.989572
0.988716
0.993811
0.994121
0.992459
0.990873
0.996248
0.995849
0.994692
1.00479
1.0048
1.00512
1.00496
1.00382
1.00452
1.00467
1.00391
1.00392
1.00477
1.00477
1.00324
1.00312
1.00472
1.00474
1.00432
1.00429
1.00391
1.00377
1.00375
1.00417
1.00449
0.9959
0.995874
0.994421
0.994067
1.03934
1.03868
0.995996
0.995983
0.996566
0.996591
0.994417
0.994381
0.996518
0.995965
0.996906
0.996896
0.996665
0.99616
0.994261
0.994958
0.994217
0.994238
0.993543
1.02639
0.992538
0.995381
1.05654
1.0459
1.00602
0.983159
0.99415
0.995716
0.988845
0.988746
0.994542
0.998438
0.997846
0.993866
0.994523
0.996169
0.991149
0.989624
1.00231
1.00242
1.00384
1.00359
1.00436
1.00321
0.997802
0.999832
1.00178
1.00188
1.00484
1.00484
1.00473
1.00442
0.994749
0.994692
0.990997
0.990926
0.997344
0.998941
0.99919
0.999267
0.989445
0.988611
0.988811
0.988965
0.996349
0.99942
0.992165
0.989454
1.00295
1.003
0.999002
0.998945
1.00123
1.00132
1.00478
1.0048
1.0042
1.00418
1.00477
1.00479
1.00295
1.00299
0.99855
0.998493
1.00469
1.00469
0.99573
0.995731
0.992193
0.993883
0.99597
0.99765
0.997655
0.998862
0.997441
0.991982
0.994022
0.989953
0.989095
0.988678
0.993682
0.993711
0.991712
0.991727
1.0007
1.00393
1.00393
1.00423
1.00392
0.98816
0.988163
1.00393
1.00392
1.00391
1.00392
0.999979
1.00001
1.0045
1.00416
0.9962
0.996296
0.995463
0.995454
0.996726
0.996722
0.994428
0.994427
0.99515
0.995446
1.02367
1.02364
1.03671
1.03683
0.988749
0.988689
0.995839
0.995885
0.995927
0.995491
0.995495
0.996724
0.996723
0.994034
0.994031
0.993054
0.993213
0.996295
0.996305
0.99549
0.995487
1.04261
1.04366
1.00175
0.99614
0.995775
0.999666
0.999671
0.995187
0.995178
1.0008
1.00074
1.00367
1.00382
0.999815
1.00183
1.00454
1.00452
0.995099
0.995085
1.00203
0.999338
1.004
1.00454
0.996774
0.996722
0.99473
0.994733
0.993493
0.993467
1.00335
0.998062
1.00227
0.999296
0.995106
0.996416
1.00111
0.998367
0.997692
1.00048
0.994936
0.994915
0.994915
0.994906
1.0003
1.00019
1.00125
0.998278
1.00263
0.999545
0.996573
1.00243
0.993691
0.994933
1.00094
0.996319
0.996554
0.998597
0.995068
0.994721
0.993448
0.993099
1.04409
1.04621
0.995512
0.994508
0.994249
0.996675
1.00702
1.01087
1.01576
0.989862
0.990186
1.01432
0.995957
0.996272
0.99612
1.01304
1.01553
0.996726
0.996416
0.98749
0.985274
1.01139
1.01704
0.989682
0.989218
0.985635
0.996506
0.984308
0.985283
1.0088
1.00857
1.00537
1.00555
1.0097
1.00533
0.983541
0.989436
1.00554
1.01881
1.01087
1.00902
1.00549
0.982947
0.989911
0.996924
0.99715
0.990149
0.984003
1.00504
0.986809
1.00012
0.989253
1.00272
1.00076
1.03662
1.07465
1.06332
1.03212
0.994322
0.99468
0.997083
0.99717
0.993458
1.097
1.04523
1.00282