/*--------------------------------*- C++ -*----------------------------------*\
  =========                 |
  \\      /  F ield         | OpenFOAM: The Open Source CFD Toolbox
   \\    /   O peration     | Website:  https://openfoam.org
    \\  /    A nd           | Version:  7
     \\/     M anipulation  |
\*---------------------------------------------------------------------------*/
FoamFile
{
    version     2.0;
    format      ascii;
    class       volScalarField;
    location    "2280";
    object      T;
}
// * * * * * * * * * * * * * * * * * * * * * * * * * * * * * * * * * * * * * //

dimensions      [0 0 0 1 0 0 0];

internalField   nonuniform List<scalar> 
238806
(
6.61234e-09
6.79852e-09
1.14649e-08
1.19437e-08
1.10466e-08
7.90717e-09
7.85054e-09
6.61481e-09
6.44884e-09
1.2162e-08
1.24781e-08
1.03022e-08
1.81432e-08
1.85525e-08
2.15766e-08
1.99032e-08
1.2772e-08
1.3212e-08
5.60429e-09
5.58473e-09
1.62994e-08
1.71972e-08
2.0002e-08
2.04069e-08
2.14744e-08
1.21044e-08
1.26696e-08
1.28463e-08
1.4078e-08
1.38541e-08
5.62834e-09
5.57643e-09
1.64735e-08
1.53047e-08
1.28052e-08
1.20377e-08
2.97788e-05
2.99863e-05
1.16265e-08
1.12087e-08
1.18111e-08
1.28993e-08
6.49686e-09
6.45162e-09
5.64135e-09
5.66569e-09
2.2274e-08
2.05616e-08
1.42055e-08
1.31792e-08
9.10547e-09
8.85748e-09
1.70751e-08
1.74836e-08
3.12859e-06
3.07098e-06
1.18165e-08
1.13255e-08
1.13161e-08
1.04396e-08
1.08218e-08
1.11119e-08
1.08139e-08
1.09736e-08
1.04708e-08
5.68549e-09
5.70413e-09
6.30094e-09
6.4399e-09
7.4458e-09
7.70441e-09
1.65466e-08
1.77895e-08
1.37519e-08
1.47776e-08
1.0407e-08
1.0834e-08
1.28984e-08
1.21309e-08
4.77501e-07
4.74412e-07
1.05759e-08
9.89951e-09
7.24703e-09
7.15183e-09
9.28291e-09
9.66858e-09
1.4539e-08
1.39984e-08
1.34714e-08
1.39498e-08
9.93295e-09
1.03606e-08
6.68481e-09
6.74495e-09
1.06003e-08
1.01371e-08
1.09482e-08
1.17265e-08
1.26415e-08
5.73471e-09
6.22644e-09
6.32152e-09
6.46454e-09
6.4095e-09
2.5942e-08
2.73086e-08
1.50323e-08
1.60847e-08
1.58982e-08
1.71095e-08
1.08792e-08
1.03579e-08
9.31038e-09
9.56306e-09
1.78331e-08
1.67671e-08
3.57027e-05
3.56107e-05
3.58613e-05
1.5944e-08
1.70629e-08
7.48727e-09
7.60896e-09
7.70699e-09
7.65534e-09
2.31364e-08
2.33642e-08
1.56335e-08
1.53427e-08
1.0789e-08
1.40586e-08
1.45793e-08
1.40593e-08
9.98692e-09
9.51157e-09
6.70537e-09
6.63414e-09
1.8194e-08
1.91138e-08
1.86629e-08
1.81217e-08
1.0213e-08
6.02227e-09
6.12163e-09
5.99472e-09
6.07087e-09
6.4719e-09
6.36614e-09
7.03533e-09
7.21589e-09
8.15024e-09
8.37546e-09
2.53024e-08
2.68397e-08
1.73279e-08
1.84272e-08
1.72449e-08
1.85127e-08
1.72029e-08
1.81161e-08
1.0964e-08
1.14007e-08
8.73833e-09
8.90607e-09
1.29128e-08
1.21384e-08
3.53251e-07
3.55578e-07
2.9511e-05
2.97163e-05
1.10727e-08
1.04116e-08
5.99262e-08
6.07985e-08
6.06951e-08
7.31042e-09
7.41899e-09
9.97438e-09
1.02243e-08
2.53311e-08
2.53493e-08
1.52613e-08
1.38541e-08
1.32511e-08
1.34076e-08
7.21429e-09
7.26833e-09
6.61537e-09
6.5558e-09
6.51168e-09
6.46473e-09
7.31201e-09
7.43993e-09
1.13366e-08
1.07281e-08
1.05935e-08
1.53369e-08
1.52121e-08
1.12841e-08
1.15612e-08
5.6763e-09
5.63574e-09
6.05816e-09
6.17223e-09
6.17036e-09
6.28993e-09
8.51448e-09
8.92892e-09
7.46073e-09
7.2693e-09
4.09735e-08
4.03116e-08
2.95511e-08
3.12397e-08
2.30207e-08
2.15036e-08
1.90502e-08
1.77159e-08
1.54054e-08
1.43687e-08
1.08209e-08
1.13894e-08
9.87652e-09
9.44932e-09
9.34077e-09
9.17785e-09
1.28089e-08
1.20387e-08
1.59284e-07
1.50767e-07
1.39136e-06
1.31558e-06
1.18666e-06
1.12261e-06
8.12965e-06
8.58557e-06
6.24846e-09
5.98813e-09
7.48333e-09
6.99457e-09
1.94927e-08
2.06492e-08
8.36719e-08
8.69361e-08
7.68356e-09
7.81069e-09
9.39932e-09
9.18211e-09
1.01209e-08
1.05679e-08
1.30598e-08
1.36575e-08
1.947e-08
1.91327e-08
1.22708e-08
1.16937e-08
6.72127e-09
6.65025e-09
6.66647e-09
6.60098e-09
6.62628e-09
6.56493e-09
1.23063e-08
1.2247e-08
7.52667e-09
7.36725e-09
1.12782e-08
1.15531e-08
1.71386e-08
1.83763e-08
9.83164e-09
1.57416e-08
8.69154e-09
9.01268e-09
8.40869e-09
5.70257e-09
5.75091e-09
5.81327e-09
5.87497e-09
6.18856e-09
6.10338e-09
6.95962e-09
6.72801e-09
6.76739e-09
6.76192e-09
7.28648e-09
7.38313e-09
3.09133e-08
3.19198e-08
2.55738e-08
2.47155e-08
3.07027e-08
3.23828e-08
2.6455e-08
2.81682e-08
1.98879e-08
2.13715e-08
1.84138e-08
1.98247e-08
1.79918e-08
1.92789e-08
1.85039e-08
1.91189e-08
1.26383e-08
1.34449e-08
1.03528e-08
1.06152e-08
9.90278e-09
1.03251e-08
1.76209e-08
1.7508e-08
1.37392e-08
1.36336e-08
1.38437e-08
1.46645e-08
3.21063e-07
3.04577e-07
2.08957e-07
1.9785e-07
3.96529e-07
4.18402e-07
5.0092e-07
5.04125e-07
1.52004e-06
1.50441e-06
8.62268e-06
8.16204e-06
3.60663e-05
1.15872e-08
1.09611e-08
1.71595e-08
1.61008e-08
2.28653e-06
2.42354e-06
3.09417e-08
2.94306e-08
6.17994e-08
6.33364e-08
7.96921e-09
8.21157e-09
7.53751e-09
7.48823e-09
9.79613e-09
9.56164e-09
1.10241e-08
1.163e-08
1.64372e-08
1.63145e-08
1.67637e-08
1.72229e-08
8.09441e-09
7.75857e-09
6.7608e-09
6.69201e-09
6.86002e-09
6.93383e-09
6.93277e-09
6.5479e-09
6.60657e-09
1.11642e-08
1.11046e-08
8.7054e-09
8.36892e-09
7.67208e-09
7.49646e-09
1.28426e-08
1.36318e-08
2.02808e-08
8.28702e-09
8.71602e-09
1.29564e-08
1.2048e-08
1.07442e-08
1.02207e-08
1.02735e-08
1.07027e-08
6.61565e-09
6.80436e-09
5.76884e-09
5.72286e-09
5.82809e-09
5.85797e-09
5.8662e-09
5.95512e-09
5.95671e-09
6.0587e-09
1.09765e-08
1.04339e-08
9.41724e-09
8.98332e-09
6.59159e-09
6.66098e-09
6.44542e-09
6.52367e-09
7.24179e-09
7.23931e-09
7.53163e-09
7.73505e-09
8.6696e-09
9.04732e-09
3.85604e-08
3.92663e-08
2.34709e-08
2.2311e-08
3.19195e-08
3.35914e-08
2.74328e-08
2.91389e-08
2.37869e-08
2.54961e-08
2.13653e-08
2.30246e-08
1.87887e-08
2.00923e-08
1.80219e-08
1.74647e-08
1.32649e-08
1.40925e-08
1.00644e-08
9.8072e-09
1.19373e-08
1.12563e-08
1.46062e-08
1.37237e-08
1.46205e-08
1.45144e-08
1.30809e-08
2.49989e-07
2.37793e-07
1.59988e-07
1.51475e-07
2.30528e-07
2.43414e-07
2.77882e-07
2.62817e-07
1.31295e-06
1.38914e-06
1.05043e-06
1.00151e-06
1.35363e-06
1.42689e-06
1.89125e-05
1.87818e-05
2.06907e-06
1.9628e-06
9.028e-09
8.7021e-09
9.15199e-09
1.80617e-08
1.8537e-08
1.80445e-08
1.8654e-08
1.83444e-08
1.79528e-08
2.95485e-06
2.90052e-06
5.27921e-08
5.49658e-08
5.85594e-08
5.99051e-08
6.17308e-08
6.17955e-08
3.16747e-08
3.1449e-08
7.64397e-09
7.50227e-09
7.90155e-09
8.0717e-09
8.70575e-09
8.63957e-09
9.69932e-09
1.2421e-08
1.23265e-08
1.30121e-08
1.75191e-08
1.87506e-08
1.86553e-08
1.83138e-08
6.93209e-09
6.97173e-09
6.86929e-09
6.76228e-09
6.82758e-09
6.73617e-09
6.78899e-09
6.53688e-09
6.48714e-09
1.36437e-08
1.35834e-08
1.13067e-08
1.18568e-08
1.01997e-08
1.06613e-08
7.5145e-09
7.69337e-09
1.18443e-08
1.11445e-08
1.45425e-08
1.40077e-08
1.44697e-08
1.974e-08
1.64494e-08
1.63393e-08
1.68084e-08
1.72815e-08
1.45947e-08
1.07456e-08
7.28479e-09
7.03531e-09
6.15482e-09
6.28643e-09
5.77903e-09
5.83762e-09
5.903e-09
5.81284e-09
5.66915e-09
5.71915e-09
5.96748e-09
5.89871e-09
9.89878e-09
1.03986e-08
8.13026e-09
8.52477e-09
7.28244e-09
7.01797e-09
6.98886e-09
6.98717e-09
6.63924e-09
6.79677e-09
7.83801e-09
7.84959e-09
7.66875e-09
7.56833e-09
8.74249e-09
8.51008e-09
4.44367e-08
4.34453e-08
3.23475e-08
3.04973e-08
2.02626e-08
1.91361e-08
2.60932e-08
2.47329e-08
2.90868e-08
2.75471e-08
2.58075e-08
2.42722e-08
2.8462e-08
3.01598e-08
2.464e-08
2.63567e-08
2.21577e-08
2.38285e-08
1.75943e-08
1.65098e-08
1.96356e-08
2.09525e-08
1.51013e-08
1.48031e-08
1.63958e-08
1.56941e-08
1.39411e-08
1.47876e-08
1.22727e-08
1.15082e-08
1.23175e-08
1.25968e-08
9.07096e-09
9.02583e-09
1.07799e-08
1.12358e-08
1.17464e-08
1.23777e-08
1.3629e-08
1.45099e-08
1.55431e-08
1.64813e-08
5.4087e-07
5.70386e-07
3.04127e-07
3.20548e-07
2.09572e-07
1.98386e-07
3.73382e-07
3.75832e-07
4.21076e-07
3.98984e-07
6.12226e-07
6.45744e-07
1.15542e-06
1.16489e-06
9.94799e-07
9.8886e-07
1.4415e-06
1.36712e-06
2.06304e-05
2.14827e-05
3.07859e-05
3.10052e-05
4.16239e-06
4.13733e-06
9.27365e-06
9.23255e-06
1.15516e-08
1.24648e-08
6.52765e-09
6.6321e-09
2.02336e-08
2.07718e-08
1.18108e-08
1.26209e-08
1.27476e-08
1.17976e-08
1.75158e-08
1.64629e-08
2.43547e-06
2.39228e-06
1.7643e-05
1.77742e-05
1.03565e-07
1.04423e-07
7.65039e-08
7.93947e-08
7.52242e-08
7.30325e-08
6.27047e-08
6.38073e-08
6.30471e-08
6.05092e-08
8.20989e-09
8.46666e-09
7.5575e-09
7.36537e-09
7.17832e-09
7.04736e-09
8.00191e-09
7.78544e-09
8.40488e-09
8.34026e-09
1.01169e-08
9.69084e-09
1.1171e-08
1.17676e-08
2.75132e-08
2.73812e-08
1.48555e-08
1.54925e-08
1.53527e-08
1.69979e-08
1.88382e-08
8.9434e-09
9.02557e-09
7.09385e-09
7.19433e-09
6.81581e-09
6.89449e-09
6.83281e-09
6.89023e-09
6.57169e-09
6.51737e-09
1.43907e-08
1.43295e-08
1.05525e-08
1.10217e-08
1.17117e-08
1.16525e-08
7.87387e-09
7.6962e-09
7.34619e-09
7.19654e-09
1.40394e-08
1.48593e-08
1.47084e-08
1.19921e-08
1.21498e-08
1.25789e-08
9.69872e-09
9.27095e-09
9.04576e-09
9.13669e-09
9.5489e-09
1.25589e-08
1.35128e-08
1.84326e-08
9.66517e-09
6.80563e-09
7.01111e-09
5.80818e-09
5.86699e-09
5.77542e-09
5.75127e-09
5.78453e-09
5.861e-09
9.49724e-09
9.50251e-09
9.97036e-09
9.39488e-09
9.90032e-09
7.50284e-09
7.23687e-09
6.88169e-09
7.12892e-09
6.7805e-09
6.56334e-09
6.7019e-09
6.61808e-09
7.00209e-09
7.2249e-09
8.34345e-09
8.23765e-09
7.52138e-09
7.52832e-09
7.99704e-09
8.31935e-09
3.37244e-08
3.27405e-08
3.82806e-08
3.91654e-08
3.92157e-08
3.87887e-08
3.1188e-08
3.03186e-08
2.18653e-08
2.05376e-08
2.12687e-08
2.01303e-08
2.49438e-08
2.35905e-08
2.87665e-08
3.0307e-08
2.48287e-08
2.32972e-08
2.55254e-08
2.72432e-08
2.29619e-08
2.46543e-08
1.68136e-08
1.57452e-08
1.69892e-08
1.64616e-08
1.81691e-08
1.9097e-08
1.19268e-08
1.2546e-08
1.20562e-08
1.28421e-08
1.15758e-08
1.20232e-08
1.0077e-08
1.01742e-08
1.08259e-08
1.0324e-08
1.04558e-08
1.16101e-08
1.09048e-08
1.54465e-08
1.55427e-08
1.34301e-08
1.26597e-08
1.60738e-08
1.51347e-08
2.99479e-08
2.85928e-08
5.41557e-07
5.42385e-07
3.54729e-07
3.73948e-07
3.41261e-07
3.38744e-07
1.75803e-07
1.85587e-07
2.44444e-07
2.31454e-07
2.79321e-07
2.64108e-07
1.3109e-06
1.38762e-06
7.61285e-07
7.64996e-07
6.95096e-07
6.90373e-07
9.65957e-07
9.19764e-07
9.4347e-07
8.97798e-07
1.23605e-06
1.17466e-06
1.21816e-06
1.28421e-06
5.96866e-06
5.65742e-06
1.95135e-05
1.86442e-05
2.31759e-05
2.40115e-05
3.02951e-05
3.0508e-05
3.16921e-05
3.19247e-05
4.3889e-06
4.40796e-06
3.56264e-05
3.53053e-05
3.55644e-05
1.32359e-08
1.29619e-08
6.47352e-09
6.72045e-09
6.97837e-09
5.72918e-09
5.96153e-09
5.30528e-09
5.12689e-09
1.8223e-08
1.86628e-08
1.37068e-08
1.31544e-08
1.30641e-08
1.22894e-08
8.98556e-09
9.29041e-09
9.60667e-09
9.26249e-09
3.79901e-08
4.14682e-08
5.41935e-06
5.70939e-06
2.89438e-06
2.84221e-06
4.39217e-06
4.31081e-06
1.20336e-05
1.19019e-05
7.44383e-08
7.07582e-08
4.87557e-08
5.07239e-08
7.37566e-08
7.66785e-08
8.24683e-08
8.57463e-08
6.8675e-08
7.06478e-08
6.16597e-08
6.17473e-08
6.25497e-08
5.95598e-08
6.06389e-08
9.83863e-09
9.45746e-09
7.72532e-09
7.91756e-09
7.40169e-09
7.27776e-09
7.34575e-09
7.80872e-09
7.68349e-09
7.59634e-09
8.63613e-09
8.41042e-09
9.72303e-09
9.80946e-09
9.308e-09
8.93376e-09
1.24326e-08
1.18318e-08
2.55286e-08
2.52872e-08
1.38683e-08
1.44878e-08
1.62455e-08
1.4748e-08
9.39619e-09
9.57896e-09
7.04916e-09
6.96386e-09
7.05593e-09
7.082e-09
6.82692e-09
6.91682e-09
6.59388e-09
6.65946e-09
1.29499e-08
1.289e-08
1.15327e-08
1.20885e-08
9.33345e-09
8.90934e-09
7.88653e-09
8.09359e-09
7.2182e-09
7.08326e-09
1.29585e-08
1.22099e-08
1.22774e-08
2.06476e-08
2.17461e-08
2.00354e-08
1.43205e-08
1.47741e-08
1.64598e-08
1.70332e-08
1.75146e-08
1.89452e-08
9.36127e-09
8.75853e-09
1.21431e-08
1.13988e-08
5.91298e-09
5.80306e-09
5.96545e-09
6.04808e-09
5.90973e-09
5.98724e-09
5.79285e-09
5.7372e-09
8.28925e-09
8.44373e-09
8.9907e-09
7.78384e-09
7.476e-09
6.79866e-09
7.03251e-09
6.38926e-09
6.40114e-09
6.99826e-09
6.82676e-09
8.19204e-09
8.20785e-09
8.03984e-09
7.82455e-09
4.18256e-08
4.28356e-08
4.25391e-08
4.17162e-08
3.69058e-08
3.73624e-08
2.83201e-08
2.91993e-08
2.39197e-08
1.93161e-08
1.82027e-08
2.35052e-08
2.46729e-08
2.7932e-08
2.63933e-08
2.23752e-08
2.39008e-08
2.05911e-08
1.91362e-08
1.42088e-08
1.39169e-08
2.02968e-08
2.12529e-08
1.66275e-08
1.73457e-08
1.40109e-08
1.46813e-08
1.19426e-08
1.13454e-08
1.22445e-08
1.27035e-08
1.14128e-08
1.13222e-08
8.694e-09
8.60599e-09
8.58663e-09
8.6315e-09
1.00186e-08
1.0327e-08
1.02544e-08
1.64391e-08
1.65303e-08
1.31192e-08
1.23432e-08
1.57669e-08
1.48277e-08
5.69288e-07
5.69826e-07
5.71058e-07
5.71897e-07
3.96048e-07
3.96842e-07
3.37845e-07
3.38429e-07
1.75185e-07
1.6659e-07
1.86197e-07
1.7636e-07
2.45459e-07
2.32359e-07
3.51021e-07
3.71005e-07
3.77993e-07
3.75747e-07
6.43215e-07
6.44548e-07
8.02432e-07
8.06433e-07
5.93035e-07
5.88892e-07
1.58394e-06
1.66981e-06
1.04366e-06
1.05093e-06
1.09364e-06
1.14946e-06
9.03146e-07
8.59095e-07
9.31891e-07
8.86722e-07
1.50996e-06
1.59249e-06
1.21198e-06
1.14995e-06
1.29659e-06
1.22941e-06
2.29957e-06
2.31742e-06
1.96621e-05
1.98036e-05
2.42147e-05
2.33675e-05
3.00402e-05
3.02502e-05
2.76763e-05
2.6718e-05
8.77112e-06
9.24017e-06
4.42254e-06
4.18028e-06
9.35491e-06
9.31446e-06
1.25209e-05
1.24518e-05
7.83258e-09
7.44324e-09
7.36388e-09
1.18267e-08
1.27505e-08
8.04074e-09
8.53178e-09
7.76169e-09
7.13479e-09
6.91737e-08
7.3814e-08
6.2501e-09
6.52904e-09
2.13331e-08
2.18925e-08
1.91441e-08
1.96528e-08
1.13435e-08
1.21945e-08
1.06925e-08
1.11593e-08
1.0879e-08
1.06232e-08
2.90503e-08
2.71281e-08
4.54716e-08
4.51739e-08
9.89097e-06
1.01882e-05
2.21841e-06
2.17871e-06
3.00977e-06
3.06523e-06
2.79056e-06
2.73935e-06
1.41496e-05
1.39819e-05
9.56609e-06
9.41128e-06
2.91439e-08
2.76561e-08
1.76167e-07
1.75542e-07
1.02968e-07
1.01223e-07
3.4389e-08
3.26408e-08
5.65753e-08
5.44102e-08
8.06139e-08
7.77401e-08
6.76306e-08
6.96194e-08
6.70674e-08
6.52221e-08
6.13588e-08
6.29216e-08
6.36642e-08
3.2122e-08
7.76841e-09
7.98712e-09
7.02554e-09
7.15225e-09
8.14289e-09
8.34365e-09
8.52569e-09
8.24785e-09
9.40797e-09
9.32958e-09
1.12952e-08
1.07561e-08
1.11371e-08
1.05555e-08
2.72349e-08
2.7206e-08
2.86578e-08
2.30591e-08
2.35888e-08
1.20276e-08
1.25766e-08
1.75206e-08
1.80262e-08
8.62282e-09
8.38523e-09
8.46133e-09
8.63811e-09
7.40781e-09
7.48746e-09
7.00295e-09
6.67325e-09
6.74681e-09
6.94732e-09
7.00902e-09
1.22364e-08
1.2763e-08
1.33417e-08
1.31004e-08
1.08015e-08
1.03382e-08
8.12509e-09
8.40789e-09
9.97245e-09
9.72425e-09
9.42354e-09
1.15145e-08
1.09648e-08
1.33456e-08
1.25385e-08
1.6444e-08
1.54871e-08
1.56608e-08
1.22181e-08
1.16608e-08
1.24325e-08
1.33351e-08
1.37044e-08
1.53732e-08
1.58868e-08
1.80014e-08
1.94245e-08
1.00565e-08
6.67097e-09
6.71017e-09
6.06473e-09
6.02226e-09
5.93505e-09
5.86553e-09
5.89795e-09
5.89443e-09
7.71779e-09
7.59193e-09
8.68498e-09
9.042e-09
7.86327e-09
7.55291e-09
7.20358e-09
6.96689e-09
7.12873e-09
7.03592e-09
6.57228e-09
6.56328e-09
7.88444e-09
7.98795e-09
3.83606e-08
3.94193e-08
3.478e-08
3.55904e-08
4.00449e-08
4.08964e-08
3.84474e-08
3.8135e-08
2.64401e-08
2.73013e-08
2.6404e-08
2.55368e-08
2.14957e-08
2.28332e-08
2.23373e-08
2.11876e-08
2.21789e-08
2.06753e-08
1.77479e-08
1.80363e-08
1.98171e-08
2.05995e-08
1.55084e-08
1.48223e-08
1.4671e-08
1.55358e-08
1.1879e-08
1.16055e-08
1.29711e-08
1.34417e-08
1.06608e-08
1.07352e-08
9.04761e-09
9.14052e-09
9.56309e-09
9.51462e-09
9.56924e-09
9.87974e-09
1.64484e-08
1.65573e-08
1.74916e-08
1.75711e-08
1.42548e-08
1.39463e-08
5.40288e-07
5.3972e-07
4.17729e-07
4.18596e-07
3.76271e-07
3.56816e-07
2.45944e-07
2.32731e-07
3.21153e-07
3.18604e-07
1.62151e-07
1.60678e-07
1.67025e-07
1.66516e-07
1.95907e-07
2.06811e-07
2.19169e-07
2.18339e-07
2.80891e-07
2.65539e-07
3.62239e-07
3.42947e-07
1.31575e-06
1.38833e-06
6.11115e-07
6.09869e-07
5.65008e-07
5.96118e-07
5.50457e-07
5.46537e-07
6.45667e-07
6.40978e-07
6.99815e-07
1.31014e-06
1.23972e-06
1.17265e-06
1.10967e-06
1.03449e-06
1.08751e-06
1.14302e-06
9.0847e-07
8.64226e-07
8.53965e-07
8.48736e-07
9.36413e-07
9.30394e-07
9.82166e-07
1.03694e-06
1.46646e-06
1.39201e-06
1.22451e-06
1.1631e-06
1.30894e-06
1.24085e-06
2.23955e-06
2.12348e-06
1.74243e-06
1.73188e-06
1.7721e-05
1.85088e-05
1.72373e-05
1.80698e-05
2.2514e-05
2.23321e-05
2.85507e-05
2.91625e-05
3.05437e-05
3.07597e-05
2.86943e-05
2.94399e-05
8.74523e-06
9.20976e-06
3.78193e-06
3.76741e-06
6.2234e-06
6.21999e-06
1.04198e-05
1.04691e-05
9.76046e-06
9.80713e-06
1.77818e-05
1.77195e-05
3.52875e-05
3.52581e-05
8.41906e-09
7.88313e-09
1.07151e-08
1.10159e-08
7.64283e-09
8.01448e-09
9.27208e-09
9.77503e-09
7.01928e-09
7.18403e-09
7.59023e-09
1.44231e-08
1.41379e-08
4.81784e-09
4.71592e-09
2.01777e-08
2.11427e-08
2.06826e-08
1.76136e-08
1.71843e-08
1.30901e-08
1.3989e-08
8.69348e-09
8.70406e-09
8.43992e-09
8.29854e-09
1.00625e-08
9.98202e-09
1.18178e-08
3.83789e-08
3.75046e-08
4.17752e-08
3.82996e-08
4.39778e-06
4.3218e-06
1.21336e-05
1.22372e-05
4.72986e-06
4.79149e-06
2.7453e-06
2.70083e-06
3.18693e-06
3.24585e-06
1.36599e-05
1.34693e-05
9.88666e-06
1.00485e-05
3.95588e-08
3.73807e-08
3.32671e-08
3.15826e-08
1.66858e-07
1.67347e-07
1.45057e-07
1.38539e-07
1.19381e-07
1.18755e-07
1.05104e-07
1.05601e-07
5.23483e-08
5.03833e-08
8.11648e-08
8.44552e-08
8.71968e-08
9.03809e-08
6.68361e-08
6.884e-08
7.09507e-08
6.89702e-08
6.03936e-08
5.9133e-08
8.6661e-09
8.96651e-09
8.4683e-09
8.76917e-09
7.23124e-09
7.08556e-09
7.43287e-09
7.28544e-09
8.70726e-09
8.95701e-09
9.04006e-09
8.96891e-09
1.02605e-08
9.75303e-09
1.05916e-08
1.00938e-08
2.08026e-08
2.08647e-08
2.21495e-08
1.33669e-08
1.36261e-08
1.27807e-08
1.32211e-08
1.60627e-08
1.66758e-08
8.73376e-09
9.09285e-09
7.13818e-09
7.30396e-09
6.77846e-09
6.69766e-09
1.47944e-08
1.45455e-08
1.24542e-08
1.26907e-08
7.09366e-09
6.99158e-09
8.26104e-09
8.06029e-09
7.69895e-09
7.90031e-09
1.4595e-08
1.56191e-08
1.51317e-08
1.21733e-08
1.25308e-08
1.0945e-08
1.04864e-08
1.35966e-08
1.32233e-08
1.28057e-08
1.15306e-08
1.70486e-08
1.69379e-08
4.09188e-08
4.05059e-08
1.11227e-08
1.04981e-08
1.26474e-08
1.39008e-08
1.29852e-08
1.74981e-08
1.81697e-08
1.86729e-08
1.6265e-08
1.67302e-08
6.50174e-09
6.37483e-09
6.41774e-09
6.50865e-09
5.9531e-09
5.91749e-09
5.6266e-09
5.58567e-09
5.61621e-09
6.1062e-09
6.11486e-09
5.90836e-09
5.94106e-09
7.40656e-09
7.29606e-09
8.61939e-09
8.28784e-09
8.58674e-09
8.21282e-09
7.2141e-09
7.49887e-09
6.81403e-09
6.90253e-09
3.65669e-08
3.76512e-08
4.393e-08
4.55155e-08
3.64524e-08
3.73734e-08
3.25112e-08
3.32633e-08
3.3174e-08
3.47492e-08
3.47049e-08
3.41082e-08
2.80268e-08
2.86913e-08
2.70509e-08
2.7387e-08
2.25123e-08
2.38579e-08
1.70306e-08
1.67246e-08
1.944e-08
1.86818e-08
1.91989e-08
2.01416e-08
1.39133e-08
1.32588e-08
1.5456e-08
1.63378e-08
1.12191e-08
1.09511e-08
1.06732e-08
1.07696e-08
9.5365e-09
9.63239e-09
9.14067e-09
9.45086e-09
1.5452e-08
1.55591e-08
1.41598e-07
1.41237e-07
4.43325e-07
4.4246e-07
4.54257e-07
4.7894e-07
3.53918e-07
3.73041e-07
3.03672e-07
3.19995e-07
2.31945e-07
2.45649e-07
4.55199e-07
4.58172e-07
2.4683e-07
2.60957e-07
1.81642e-07
1.82392e-07
2.13238e-07
2.00557e-07
1.86808e-07
1.76943e-07
2.4749e-07
2.3413e-07
2.07556e-07
1.9658e-07
2.19974e-07
2.82658e-07
2.67183e-07
2.97052e-07
2.57032e-07
2.71416e-07
3.37277e-07
3.56014e-07
1.67066e-06
1.76298e-06
1.55391e-06
1.47077e-06
9.44776e-07
9.46653e-07
6.70916e-07
6.68698e-07
4.92378e-07
4.89532e-07
5.07296e-07
4.80573e-07
7.18589e-07
7.23213e-07
6.12301e-07
6.07851e-07
7.56668e-07
7.51397e-07
1.36445e-06
1.43945e-06
1.10177e-06
1.09161e-06
8.74784e-07
8.69417e-07
9.96481e-07
1.04617e-06
8.92338e-07
9.3781e-07
7.97753e-07
7.92353e-07
1.04465e-06
1.05202e-06
1.38176e-06
1.45575e-06
1.27752e-06
1.28979e-06
1.09463e-06
1.15501e-06
1.53518e-06
1.45567e-06
4.39678e-06
4.64759e-06
1.87502e-06
1.77897e-06
1.93376e-06
1.94482e-06
1.75188e-06
6.76077e-06
7.12365e-06
2.61892e-05
2.5186e-05
1.91993e-05
1.83493e-05
2.49889e-05
2.41074e-05
2.45881e-05
2.3722e-05
2.62863e-05
2.54466e-05
2.94053e-05
2.87843e-05
3.03972e-05
3.01607e-05
2.98468e-05
2.90801e-05
3.14749e-05
3.17041e-05
2.07229e-06
1.9652e-06
6.22471e-06
6.24637e-06
7.86092e-06
7.89311e-06
6.89511e-06
7.28495e-06
1.08983e-05
1.09592e-05
9.85266e-06
9.89717e-06
1.628e-05
1.61995e-05
2.75329e-05
2.74746e-05
3.58618e-05
3.602e-05
2.87908e-08
2.84055e-08
1.20229e-08
1.12562e-08
1.16656e-08
9.99464e-09
1.03014e-08
9.42266e-09
9.66509e-09
9.90166e-09
8.42145e-09
6.20315e-09
2.06917e-08
2.15549e-08
9.41534e-09
9.85787e-09
4.93076e-09
4.88638e-09
6.82786e-09
6.52954e-09
1.97011e-08
1.92475e-08
1.21127e-08
1.15317e-08
1.48037e-08
1.39045e-08
8.49306e-09
8.90199e-09
8.38543e-09
9.20661e-09
8.92654e-09
8.82231e-09
9.2716e-09
1.44179e-08
1.36299e-08
1.35503e-08
6.04601e-08
6.08711e-08
3.03543e-08
2.84254e-08
1.40907e-07
1.32619e-07
1.52142e-06
1.52247e-06
6.7106e-06
6.37907e-06
1.1946e-05
1.2048e-05
5.32612e-06
5.05205e-06
1.79486e-06
1.81985e-06
2.86253e-06
2.90979e-06
2.63512e-06
2.58699e-06
3.71034e-06
3.64171e-06
5.47253e-06
5.37701e-06
1.73208e-05
1.74522e-05
1.15735e-05
1.13875e-05
2.16913e-05
2.2255e-05
2.8391e-08
2.69252e-08
2.99948e-08
2.84895e-08
1.05308e-07
1.10538e-07
1.30631e-07
1.37856e-07
1.2409e-07
1.27163e-07
1.22932e-07
1.01385e-07
1.00844e-07
4.13775e-08
4.35778e-08
6.35618e-08
6.59112e-08
7.97797e-08
8.30783e-08
8.57189e-08
8.89468e-08
8.53179e-08
8.25736e-08
5.76146e-08
5.92572e-08
6.82463e-08
7.02248e-08
6.52656e-08
6.70368e-08
3.34378e-08
3.3384e-08
8.3233e-09
8.61689e-09
8.74238e-09
9.10246e-09
7.32632e-09
7.39453e-09
7.15149e-09
7.03093e-09
9.03631e-09
9.31065e-09
8.13889e-09
8.07735e-09
1.01811e-08
1.06554e-08
2.96298e-08
2.94155e-08
2.09171e-08
1.41528e-08
6.92794e-09
6.85403e-09
1.37967e-08
1.40422e-08
6.90039e-09
8.31457e-09
8.5542e-09
7.92429e-09
8.14028e-09
1.07656e-08
1.0445e-08
1.12012e-08
1.05491e-08
1.01409e-08
1.01438e-08
1.44772e-08
1.58798e-08
1.56695e-08
2.19305e-08
2.78534e-08
2.75861e-08
1.06438e-08
9.99428e-09
1.3473e-08
1.30269e-08
1.60021e-08
1.49158e-08
2.0047e-08
7.01923e-09
7.31226e-09
7.89203e-09
6.564e-09
6.48171e-09
6.41637e-09
6.60324e-09
6.28701e-09
6.42242e-09
5.73554e-09
5.73845e-09
5.61356e-09
5.63361e-09
6.23746e-09
6.25092e-09
6.04364e-09
6.00742e-09
7.81997e-09
7.57942e-09
8.06419e-09
7.9226e-09
7.80589e-09
8.14275e-09
2.90449e-08
2.99579e-08
3.29844e-08
3.41128e-08
3.88081e-08
4.05541e-08
4.22691e-08
3.74609e-08
3.67039e-08
3.79248e-08
3.97263e-08
3.7806e-08
3.60025e-08
3.14316e-08
3.00547e-08
3.20112e-08
2.92907e-08
1.42393e-08
1.3757e-08
1.60456e-08
1.57413e-08
2.14725e-08
2.24387e-08
1.32018e-08
1.25643e-08
1.1327e-08
1.14214e-08
9.81423e-09
9.67309e-09
1.6617e-07
1.73915e-07
8.45252e-08
8.45616e-08
1.07156e-06
1.01617e-06
2.41108e-07
2.28259e-07
2.36615e-07
2.49024e-07
4.15763e-07
4.14646e-07
3.02665e-07
3.18796e-07
3.56168e-07
3.7555e-07
3.3722e-07
1.93495e-07
1.84705e-07
4.11117e-07
4.08255e-07
4.36894e-07
4.61094e-07
2.40817e-07
2.29034e-07
1.76929e-07
1.68278e-07
1.69876e-07
1.7126e-07
1.69593e-07
1.70447e-07
1.58141e-07
1.49674e-07
1.67585e-07
2.2075e-07
2.21492e-07
2.08277e-07
1.97236e-07
2.84572e-07
2.69015e-07
2.93765e-07
2.95347e-07
4.2922e-07
4.06471e-07
3.58067e-07
3.39147e-07
1.52307e-06
1.60573e-06
1.46847e-06
1.55131e-06
9.85903e-07
1.03594e-06
9.42459e-07
5.20578e-07
5.1955e-07
7.57413e-07
7.98225e-07
5.88912e-07
5.92546e-07
5.38653e-07
5.41819e-07
5.21847e-07
5.18183e-07
6.05341e-07
6.01266e-07
6.50297e-07
6.16702e-07
7.17742e-07
7.1263e-07
7.61747e-07
1.6266e-06
1.5417e-06
1.23279e-06
1.30344e-06
9.1392e-07
9.59744e-07
1.15806e-06
1.10215e-06
9.48931e-07
9.54264e-07
8.64072e-07
8.21957e-07
8.87303e-07
8.81616e-07
9.41522e-07
1.52246e-06
1.60562e-06
1.24655e-06
1.18488e-06
1.30135e-06
1.16515e-06
1.10357e-06
1.56455e-06
1.48338e-06
1.38036e-06
1.90435e-06
1.89943e-06
1.8858e-06
1.78884e-06
1.85722e-06
1.86545e-06
1.9531e-06
1.84916e-06
5.6161e-06
5.92471e-06
1.37876e-05
1.39227e-05
2.36987e-05
2.33761e-05
2.41405e-05
1.93584e-05
1.84998e-05
1.89211e-05
1.97759e-05
2.16559e-05
2.07959e-05
2.2856e-05
2.26891e-05
2.64794e-05
2.56238e-05
2.96407e-05
2.90098e-05
2.99176e-05
2.96677e-05
2.60313e-05
2.69808e-05
2.96458e-05
2.88887e-05
3.12978e-05
3.1878e-05
2.88962e-06
3.05056e-06
3.37407e-06
3.56563e-06
6.51613e-06
6.54196e-06
5.52489e-06
5.53883e-06
4.23511e-06
4.02e-06
6.58321e-06
6.59229e-06
7.77802e-06
7.75138e-06
1.09092e-05
1.03473e-05
1.10175e-05
1.10725e-05
1.18996e-05
1.18306e-05
1.61163e-05
1.60387e-05
3.42438e-05
3.43828e-05
3.5831e-05
3.58651e-05
3.59671e-05
3.48169e-08
3.6439e-08
5.26183e-09
5.43455e-09
1.03116e-08
9.81831e-09
1.04728e-08
1.21705e-08
1.03323e-08
1.0174e-08
8.34918e-09
9.10398e-09
9.60977e-09
9.1067e-09
6.8769e-08
7.33354e-08
1.31549e-08
1.34409e-08
6.40762e-09
6.71464e-09
5.05471e-09
5.0455e-09
4.78564e-09
4.69599e-09
5.2371e-09
5.13755e-09
6.25168e-09
6.3827e-09
1.74251e-08
1.63104e-08
1.26343e-08
1.20865e-08
1.48898e-08
1.5334e-08
1.57581e-08
8.6219e-09
9.18403e-09
9.03055e-09
7.063e-09
6.68454e-09
9.66569e-09
9.38687e-09
1.02475e-08
5.5501e-09
5.33057e-09
5.27859e-09
4.08692e-08
4.01412e-08
3.92908e-08
3.16668e-08
3.47263e-08
2.52779e-07
2.48783e-07
4.00656e-07
4.02913e-07
2.60079e-06
2.56748e-06
7.64696e-06
7.26479e-06
6.80805e-06
6.47214e-06
1.17657e-05
1.18662e-05
9.71337e-06
1.0116e-05
4.98711e-06
5.25774e-06
1.75041e-06
1.72123e-06
3.03342e-06
3.08361e-06
3.10689e-06
3.16051e-06
2.48823e-06
2.44298e-06
3.70531e-06
3.77314e-06
4.15304e-06
4.07604e-06
1.24782e-05
1.22608e-05
1.6767e-05
1.70847e-05
1.82961e-05
1.84301e-05
1.05367e-05
1.03736e-05
1.15384e-05
1.13832e-05
1.56515e-05
1.62209e-05
2.45051e-05
2.46928e-05
3.16251e-08
2.99515e-08
3.25377e-08
3.42268e-08
1.09378e-07
1.04126e-07
1.38986e-07
1.31782e-07
9.2928e-08
9.13966e-08
1.21822e-07
1.22983e-07
1.00128e-07
9.92478e-08
5.86384e-08
6.19887e-08
5.00016e-08
4.84307e-08
7.83306e-08
8.16362e-08
7.8077e-08
7.51693e-08
8.65345e-08
8.97409e-08
7.99834e-08
7.75387e-08
5.83247e-08
5.69061e-08
6.58761e-08
6.78982e-08
6.45969e-08
6.63716e-08
6.89144e-08
7.08892e-08
3.58532e-08
3.72209e-08
8.00612e-09
7.9023e-09
8.16583e-09
9.03812e-09
9.37391e-09
7.49352e-09
7.58218e-09
8.83687e-09
3.01875e-08
3.3276e-08
3.22251e-08
7.08287e-09
7.04942e-09
6.99435e-09
8.62871e-09
9.00658e-09
1.31914e-08
1.26153e-08
9.1235e-09
9.57496e-09
9.79218e-09
1.18595e-08
1.74706e-08
2.95507e-08
2.94857e-08
2.1657e-08
2.319e-08
2.34967e-08
1.11077e-08
1.17217e-08
1.55586e-08
1.5093e-08
7.99026e-09
8.27764e-09
8.51319e-09
6.91714e-09
7.01217e-09
6.2218e-09
6.04961e-09
6.3424e-09
6.26065e-09
6.44249e-09
6.5996e-09
5.80932e-09
5.81206e-09
5.69873e-09
5.67799e-09
6.29367e-09
6.25146e-09
5.99266e-09
5.9981e-09
7.91395e-09
8.1873e-09
3.55503e-08
3.45957e-08
3.5308e-08
3.70531e-08
4.11554e-08
4.01222e-08
3.40105e-08
3.60033e-08
3.63869e-08
3.66423e-08
2.81641e-08
1.46017e-08
1.50964e-08
1.33737e-08
1.30881e-08
1.8359e-08
1.76224e-08
1.00583e-08
1.01172e-08
6.22969e-08
6.00236e-08
4.13921e-08
4.1963e-08
8.98756e-08
8.9688e-08
8.99387e-07
8.98617e-07
9.16544e-07
9.17175e-07
2.24173e-07
2.128e-07
3.05093e-07
3.21623e-07
3.24632e-07
3.0797e-07
1.98544e-07
1.89415e-07
4.64771e-07
4.65817e-07
3.95188e-07
4.16779e-07
3.36574e-07
3.3585e-07
3.55463e-07
3.74765e-07
1.94414e-07
1.85649e-07
3.89401e-07
3.86591e-07
4.34025e-07
4.3111e-07
3.11193e-07
2.9544e-07
1.8066e-07
1.71813e-07
1.78781e-07
1.70036e-07
1.72416e-07
1.6356e-07
1.98025e-07
2.10758e-07
1.59124e-07
1.57518e-07
1.68194e-07
1.6886e-07
1.49263e-07
1.57682e-07
2.3325e-07
2.46471e-07
2.98918e-07
3.00917e-07
2.75228e-07
2.60451e-07
4.03956e-07
4.26488e-07
3.60137e-07
3.41032e-07
1.66211e-06
1.75399e-06
1.69978e-06
1.79345e-06
1.46669e-06
1.54904e-06
9.9615e-07
9.98594e-07
8.05654e-07
8.06643e-07
5.48105e-07
5.49198e-07
5.94662e-07
6.27065e-07
5.53663e-07
5.56382e-07
5.61587e-07
5.58112e-07
4.86606e-07
4.83617e-07
4.62144e-07
4.59134e-07
7.56769e-07
7.61625e-07
6.68527e-07
6.73024e-07
6.5489e-07
6.59451e-07
5.84742e-07
5.80578e-07
7.66659e-07
7.7148e-07
6.80779e-07
6.75862e-07
1.27854e-06
1.21459e-06
1.53367e-06
1.61783e-06
1.22628e-06
1.29731e-06
8.96024e-07
8.91173e-07
9.85288e-07
1.03507e-06
1.09863e-06
1.15463e-06
1.1355e-06
1.08045e-06
8.69459e-07
8.27142e-07
8.41208e-07
8.35696e-07
1.49683e-06
1.57873e-06
1.25603e-06
1.19394e-06
1.33401e-06
1.26496e-06
1.17558e-06
1.11271e-06
1.40663e-06
1.39355e-06
4.37965e-06
4.63033e-06
2.31843e-06
2.44385e-06
1.975e-06
1.98708e-06
2.06501e-06
2.06668e-06
1.8401e-06
1.82929e-06
6.69016e-06
7.04932e-06
1.43419e-05
1.50396e-05
2.53774e-05
2.57153e-05
2.1947e-05
2.09929e-05
2.05631e-05
2.0717e-05
2.11141e-05
2.02319e-05
2.04211e-05
1.95567e-05
1.99325e-05
1.9066e-05
2.18252e-05
2.09603e-05
2.35504e-05
2.44078e-05
2.92366e-05
2.94402e-05
2.98693e-05
2.92282e-05
2.73232e-05
2.63583e-05
3.00427e-05
2.92679e-05
3.2108e-05
3.2347e-05
3.24993e-05
3.27448e-05
2.60699e-06
2.6104e-06
3.05556e-06
2.89435e-06
3.58118e-06
3.3905e-06
6.56559e-06
6.58822e-06
4.66641e-06
4.67116e-06
4.23224e-06
4.02304e-06
6.96871e-06
6.98473e-06
6.55825e-06
6.20269e-06
8.69564e-06
8.22521e-06
7.72406e-06
7.69613e-06
1.03685e-05
1.03154e-05
1.33623e-05
1.32278e-05
1.69403e-05
1.70103e-05
2.45344e-05
2.35251e-05
2.33297e-05
2.33563e-05
3.31505e-05
3.31154e-05
3.54914e-05
3.81539e-08
3.97797e-08
2.60517e-08
2.75518e-08
5.72655e-09
5.96214e-09
1.34844e-08
1.33605e-08
8.66094e-09
9.30193e-09
1.09505e-08
1.12734e-08
7.87204e-09
7.71847e-09
7.38215e-09
7.45823e-09
8.79816e-09
8.3803e-09
6.19356e-09
5.84061e-09
2.82001e-08
2.90012e-08
2.42477e-08
2.36495e-08
1.26527e-08
1.21177e-08
9.63964e-09
1.02645e-08
6.5629e-09
6.26437e-09
5.18071e-09
5.20342e-09
5.2056e-09
5.13203e-09
4.7719e-09
4.69296e-09
5.33565e-09
5.49981e-09
4.7572e-09
4.82393e-09
5.97532e-09
6.03712e-09
1.46754e-08
1.53928e-08
1.51304e-08
1.26325e-08
1.43908e-08
1.34865e-08
1.08809e-08
1.00863e-08
8.50241e-09
8.13002e-09
7.83697e-09
7.48864e-09
7.24999e-09
7.8183e-09
1.30998e-08
1.27422e-08
1.37282e-08
7.52347e-09
7.50546e-09
1.04574e-08
1.0202e-08
4.3944e-08
4.23477e-08
4.21683e-08
4.07195e-08
3.11043e-08
3.24492e-08
4.23088e-08
3.88531e-08
5.80569e-08
5.77891e-08
1.37187e-07
1.30877e-07
7.73071e-08
7.75358e-08
2.45501e-06
2.31628e-06
2.05354e-06
1.93435e-06
4.91118e-06
4.64821e-06
4.6926e-06
4.95631e-06
1.03173e-05
1.00166e-05
1.19508e-05
1.1766e-05
1.05117e-05
1.08949e-05
4.0218e-06
3.81271e-06