/*--------------------------------*- C++ -*----------------------------------*\
  =========                 |
  \\      /  F ield         | OpenFOAM: The Open Source CFD Toolbox
   \\    /   O peration     | Website:  https://openfoam.org
    \\  /    A nd           | Version:  7
     \\/     M anipulation  |
\*---------------------------------------------------------------------------*/
FoamFile
{
    version     2.0;
    format      ascii;
    class       volScalarField;
    location    "180";
    object      T;
}
// * * * * * * * * * * * * * * * * * * * * * * * * * * * * * * * * * * * * * //

dimensions      [0 0 0 1 0 0 0];

internalField   nonuniform List<scalar> 
238806
(
4.78115e-27
5.79133e-27
-6.77496e-30
3.30147e-30
3.24659e-30
4.57614e-27
1.74149e-27
1.1467e-26
1.13188e-26
-8.86328e-29
-5.84002e-29
-5.3569e-31
-3.0189e-29
-1.78161e-29
-1.04592e-32
-7.83556e-32
-4.15238e-29
-4.32311e-29
7.88867e-26
5.38081e-26
-1.01565e-28
-1.96971e-28
8.03286e-31
1.49072e-30
3.03704e-31
-1.1522e-29
-8.81498e-30
9.73535e-31
1.40819e-29
-5.12938e-32
2.58134e-26
2.12329e-26
-1.25468e-28
-1.31469e-28
-1.59191e-28
-1.60998e-28
1.52331e-68
5.52532e-69
-9.48483e-29
5.34457e-29
-1.20506e-29
1.15259e-30
7.56314e-27
7.93845e-27
5.407e-26
7.22099e-26
8.52924e-30
3.3276e-30
-1.74079e-29
3.27658e-28
3.79863e-27
2.38328e-27
-3.31552e-30
1.60054e-29
-5.79837e-51
-5.71937e-51
-7.92286e-29
-8.12773e-29
-1.06499e-28
-9.12157e-29
-1.03426e-28
-6.43808e-29
-1.96635e-28
-3.11134e-28
-4.22673e-28
2.69435e-26
5.19331e-26
1.09834e-26
4.12339e-27
6.79499e-27
6.59296e-27
-1.64765e-28
-1.5735e-28
2.56903e-28
-3.77633e-29
2.35615e-27
2.51154e-27
-1.35897e-28
-1.09083e-28
3.43931e-39
4.66496e-39
2.98034e-27
9.25955e-27
9.42803e-27
1.59996e-26
4.90876e-27
4.25748e-27
3.96265e-30
3.65457e-30
4.31515e-30
4.58147e-30
-1.29295e-28
-7.97463e-29
1.61954e-26
3.30628e-27
-9.13632e-29
-1.06519e-28
-1.3518e-28
-2.01332e-28
3.23611e-30
6.57116e-26
2.06692e-26
1.7976e-26
1.72058e-26
7.3591e-27
-1.94384e-28
-1.52824e-28
5.19551e-29
-1.23847e-28
-1.46078e-28
-1.4128e-28
2.94575e-27
3.88801e-27
1.62601e-27
2.67075e-27
-4.65207e-29
-3.03847e-29
1.26773e-70
8.3169e-72
4.40737e-71
8.28464e-32
1.72449e-31
1.20024e-26
7.25682e-27
5.39678e-27
2.2073e-27
-2.66373e-32
8.06952e-34
4.60503e-30
1.93615e-30
-9.71049e-30
-1.10999e-29
3.63575e-30
-8.37348e-32
-6.00754e-29
-1.666e-28
2.56904e-26
2.79958e-26
-1.70884e-32
-1.32235e-31
2.5448e-33
-1.35091e-31
4.25267e-28
4.77475e-27
-1.02184e-27
2.57888e-26
1.95137e-26
1.67403e-26
1.80379e-26
1.19789e-26
1.00522e-26
6.00358e-27
5.99168e-27
-1.44873e-28
-9.5875e-29
-2.07983e-28
-2.52748e-28
-1.87104e-28
-1.72914e-28
-1.97679e-28
-2.56487e-28
1.60185e-27
1.75275e-27
2.96986e-27
3.89791e-27
7.91198e-29
1.76241e-28
1.42333e-37
1.25684e-37
1.15959e-67
4.81655e-68
2.59456e-27
7.30065e-27
1.29596e-37
1.56479e-37
-1.71811e-37
1.38338e-26
8.22824e-27
2.18984e-27
2.74193e-27
-8.26445e-32
1.7739e-33
-3.21433e-31
1.856e-30
-2.08489e-30
-1.0331e-29
-3.91889e-28
-6.28194e-29
1.74488e-26
1.91878e-26
2.38334e-26
2.54963e-26
-3.35696e-28
6.88187e-29
-1.91701e-28
-1.77691e-28
-2.34291e-28
7.53746e-30
-7.23208e-31
1.92637e-30
1.58119e-30
3.78649e-26
6.82454e-26
9.02849e-27
2.04483e-27
1.027e-26
3.27523e-27
8.17116e-27
6.98449e-27
9.14071e-27
1.03267e-26
1.20277e-32
-1.68124e-32
-5.47816e-29
-2.91097e-29
-8.75511e-29
-1.43663e-28
-2.25267e-29
-7.47578e-29
-7.58073e-29
1.58292e-28
3.03747e-27
2.31473e-27
4.46191e-27
4.5936e-27
3.09222e-27
2.32467e-27
-7.79915e-29
-5.15865e-29
9.23428e-35
1.26808e-34
4.85416e-45
9.98196e-45
2.19183e-43
4.53805e-43
1.48357e-56
8.46684e-57
1.85901e-25
2.21765e-25
-1.9965e-27
-2.49829e-27
6.80485e-32
2.57932e-32
1.17594e-34
7.59659e-35
1.03804e-26
6.56044e-27
4.31768e-27
3.46926e-27
3.54857e-27
2.84369e-27
4.05588e-28
3.59854e-28
-1.25928e-29
-4.43896e-30
-3.37078e-29
-4.51121e-29
-7.0657e-28
-8.29385e-28
2.979e-27
3.10822e-27
2.0191e-26
2.20525e-26
-2.42276e-28
-6.81646e-29
-1.65843e-27
-1.63905e-27
-6.31502e-29
-1.4742e-28
2.46603e-30
1.25712e-29
1.44963e-28
1.41857e-29
-6.67112e-29
1.39444e-29
-5.69437e-30
6.05774e-26
3.28154e-26
3.00911e-26
1.91606e-26
1.89401e-26
2.32864e-26
2.24406e-26
2.59405e-26
2.18154e-27
1.13402e-27
4.29485e-27
7.3753e-27
-1.05912e-29
-1.22428e-29
5.77816e-30
6.1483e-30
-5.14369e-29
-2.80877e-29
-5.42757e-29
-2.47975e-29
-1.21524e-28
-6.58837e-29
-9.02398e-29
-3.66169e-29
-2.10423e-28
-1.86997e-28
-1.81567e-28
-2.08311e-28
1.11721e-27
5.60485e-28
6.5705e-28
1.20365e-27
3.33462e-27
3.4277e-27
-6.58594e-29
-8.56524e-29
1.40737e-29
-9.28044e-29
4.37782e-28
2.72459e-28
8.29243e-44
3.30027e-43
1.23938e-35
1.93615e-35
1.2076e-38
7.19622e-39
2.62544e-39
1.91969e-39
5.85173e-45
4.93392e-45
1.28501e-56
2.38881e-56
2.08886e-71
1.80283e-27
4.98443e-27
-3.10665e-30
-4.03007e-30
-3.32456e-53
-2.46742e-53
-3.82222e-29
-4.97422e-29
2.42832e-36
1.7353e-36
2.37567e-28
-2.30684e-28
6.17628e-27
2.80317e-27
3.46607e-27
2.77514e-27
2.47435e-27
1.79556e-27
-9.96297e-32
3.48898e-31
1.78476e-30
1.10696e-31
-3.50174e-29
-1.52468e-29
-9.43293e-29
-1.82127e-29
1.26117e-26
1.08258e-26
1.63975e-26
7.03761e-27
6.41905e-27
-3.43422e-28
-8.13552e-29
-3.39622e-28
-8.49115e-28
5.13477e-29
-3.73622e-28
1.49647e-30
5.01039e-30
-4.22649e-32
9.18053e-28
1.20933e-27
3.12628e-30
-6.82591e-29
5.0908e-30
1.20663e-29
-3.59562e-29
7.13083e-30
9.65885e-27
2.14861e-27
-1.64083e-27
5.2948e-27
2.54025e-26
4.47674e-26
5.25978e-27
-5.45022e-28
7.23609e-27
5.1787e-28
2.35231e-27
2.8911e-27
4.14541e-27
4.55149e-27
6.4399e-27
1.45692e-26
1.06802e-26
1.54941e-26
7.14837e-28
1.27134e-27
8.75393e-27
8.10721e-27
5.00192e-27
4.35373e-27
8.73549e-32
1.62121e-31
-2.55037e-28
-2.816e-28
-4.69478e-29
-2.61841e-29
-5.65073e-29
-2.76129e-29
-3.46898e-29
-9.16351e-30
-5.01404e-30
6.48023e-30
-2.3133e-28
-1.9854e-28
-2.07682e-28
-1.80511e-28
7.76458e-28
3.57434e-28
1.82826e-27
1.0651e-27
8.84782e-28
1.29253e-27
-1.47882e-28
-1.47106e-28
-2.71021e-29
-9.8702e-29
6.59149e-28
3.18242e-39
5.25263e-39
1.06728e-34
1.42385e-34
2.34585e-36
1.39185e-36
1.41776e-36
2.4171e-36
5.04761e-45
2.42336e-45
8.23482e-44
1.62907e-43
2.00968e-44
1.0029e-44
4.37963e-62
1.55342e-62
7.29512e-47
1.50856e-46
-3.12747e-28
-1.5935e-27
-8.83281e-28
-8.01794e-29
-1.7897e-28
2.85817e-32
-2.5379e-31
-2.59533e-30
-8.40035e-31
-9.62824e-51
-1.02263e-50
-1.37036e-30
-1.03559e-30
-9.75365e-36
-9.56673e-36
-1.52839e-37
-1.48793e-38
3.6393e-33
-9.01719e-35
-2.71831e-28
-2.39165e-29
1.05477e-26
9.85769e-27
2.58444e-27
9.14992e-28
4.36317e-27
8.62958e-28
1.09941e-27
6.94862e-28
4.04357e-30
3.324e-30
2.33104e-30
-1.82528e-31
-4.99217e-28
-2.94762e-28
-4.40399e-28
1.50155e-26
3.5584e-27
2.72119e-26
2.34027e-26
3.5558e-26
3.83336e-26
-1.6856e-28
-5.87091e-29
-5.4697e-28
-4.64379e-28
-4.80438e-28
-4.06743e-28
-1.21799e-27
-1.26705e-27
-2.04884e-28
-4.20474e-28
-2.4774e-31
-4.13742e-29
-6.76421e-29
1.07008e-29
-1.71515e-31
2.03151e-30
5.04515e-30
3.22562e-31
1.50452e-29
-8.28387e-29
3.59763e-27
2.78904e-27
6.3761e-27
-4.31577e-28
5.41267e-26
2.92194e-26
5.37019e-26
5.95251e-26
3.32363e-26
1.69914e-26
1.95996e-26
2.80772e-26
4.53905e-27
3.65334e-27
1.15206e-26
9.46903e-27
1.47121e-26
1.80705e-26
1.66609e-27
9.22683e-28
1.52536e-26
1.11742e-26
7.24286e-28
3.45918e-28
5.95611e-27
3.37614e-27
5.00849e-27
4.86518e-27
8.79104e-32
8.22026e-32
-2.09493e-32
-1.16465e-31
-2.85762e-28
-2.87631e-28
-1.70526e-28
-2.1602e-28
-8.40348e-29
-1.24814e-28
-9.82578e-29
-1.50369e-28
-5.66218e-29
-2.90413e-29
-4.32197e-29
-1.52759e-29
-1.45877e-29
2.46178e-30
-2.18026e-28
-1.37955e-28
-2.46786e-28
-2.06198e-28
-1.19719e-28
-1.3489e-28
-1.27288e-28
-6.72368e-29
4.79539e-28
1.73677e-28
9.70286e-28
1.89817e-27
3.0547e-29
1.90326e-28
1.23748e-27
2.75932e-28
2.09322e-27
1.6669e-27
1.29151e-27
9.4465e-28
-1.5239e-28
-1.42259e-28
1.5331e-28
7.0711e-29
-3.54539e-47
-2.69643e-47
9.40598e-43
6.15443e-43
1.52141e-35
2.36997e-35
8.13353e-38
7.14403e-38
9.74581e-39
1.63631e-38
-7.94761e-44
-4.64912e-44
-8.5945e-48
-8.5224e-47
1.64153e-42
1.35696e-42
1.20215e-44
2.43729e-44
5.398e-63
2.72938e-63
6.04028e-69
2.47809e-69
1.64482e-51
8.26903e-52
9.25524e-57
9.89414e-57
2.04941e-28
1.05847e-28
-5.50091e-27
-1.06921e-28
3.61582e-29
2.12813e-29
3.94231e-28
-2.6986e-28
-1.48576e-28
-3.34543e-28
-3.81847e-30
8.07955e-30
-6.98468e-50
-9.08462e-50
9.01461e-65
3.42615e-65
9.24931e-37
-7.38637e-37
4.32957e-34
3.16717e-34
-3.97904e-39
-5.07295e-39
-9.45788e-38
-3.25431e-38
-1.61586e-38
-2.97169e-38
4.77747e-28
-1.65169e-28
2.59869e-27
2.76529e-27
1.59825e-26
1.67009e-26
7.48587e-27
8.72395e-27
3.13698e-27
1.08007e-27
2.78696e-27
3.09329e-27
1.30775e-27
1.15974e-27
-3.43899e-32
6.50916e-34
-2.28785e-29
-1.15131e-29
-3.29047e-29
-8.50601e-30
2.28759e-30
-5.97092e-29
1.05248e-29
1.08614e-26
3.05332e-27
-5.72685e-28
-3.69065e-28
2.41712e-26
2.11253e-26
3.0399e-26
3.30542e-26
-1.39859e-28
-5.42859e-29
-9.24087e-28
-8.10897e-28
-2.8888e-28
-7.37319e-29
-1.69359e-27
-1.676e-27
-1.18339e-27
-1.17432e-27
1.33719e-29
5.61156e-30
1.0912e-29
2.80115e-30
-1.80359e-28
-1.4085e-28
-1.68327e-28
-5.50656e-29
-4.03862e-28
1.57705e-27
1.83689e-27
-9.85452e-29
-1.48864e-29
-3.31654e-31
1.47725e-29
1.00771e-26
1.07186e-26
4.37823e-27
-1.32914e-27
4.86477e-26
2.65612e-26
3.01635e-27
-1.38271e-27
5.9746e-27
5.47404e-27
4.77711e-27
5.76123e-27
3.57062e-27
1.07151e-26
1.09465e-26
1.20619e-26
9.80019e-27
2.19336e-26
2.63633e-26
1.31102e-26
8.57173e-27
5.94274e-27
6.58398e-27
3.77464e-27
2.0596e-27
9.62769e-28
5.20108e-28
6.16909e-27
5.62247e-27
-3.63785e-30
-2.38496e-30
5.60497e-31
5.20369e-31
-3.77113e-32
-2.16451e-32
2.00315e-30
1.53984e-30
-2.08819e-28
-2.54931e-28
-2.84512e-28
-2.99466e-28
-1.86077e-28
-2.3444e-28
-1.11912e-28
-7.57787e-29
-9.77504e-29
-1.52077e-28
-4.99022e-29
-2.06724e-29
-2.49115e-29
-3.04058e-30
-1.73542e-28
-4.9668e-29
-1.85625e-28
-1.62371e-28
-2.55075e-28
-2.88727e-28
1.60623e-27
1.23634e-27
1.49329e-27
7.69994e-28
1.03158e-27
1.15225e-27
-1.14193e-28
1.49131e-28
1.7412e-27
1.90735e-27
2.17617e-27
6.74968e-28
1.02459e-27
-1.30138e-28
-1.42042e-28
3.74585e-28
5.89016e-28
4.24609e-29
1.14208e-28
-1.15295e-28
-1.3406e-28
-2.40545e-46
1.01602e-45
-1.24873e-44
-5.06885e-45
1.40634e-37
1.81818e-37
2.73724e-35
1.71992e-35
1.76684e-36
2.92902e-36
1.49268e-36
2.57712e-36
2.11926e-45
1.00389e-45
8.38124e-45
-3.67411e-45
1.22919e-40
1.14889e-40
4.58767e-44
9.17967e-44
1.18584e-42
2.23871e-42
1.11023e-43
2.13964e-43
7.78859e-44
3.97744e-44
2.77272e-57
6.80278e-58
2.60898e-63
4.96567e-63
7.23021e-64
3.73461e-64
3.44183e-70
1.36713e-70
2.0416e-66
8.83704e-67
2.06707e-52
5.15261e-52
-7.33406e-71
-1.52568e-70
-2.04234e-70
-2.49867e-28
6.88618e-29
2.70124e-27
7.80129e-27
-5.3564e-27
1.22875e-26
6.67574e-27
-1.11784e-26
-1.16627e-26
6.06537e-29
4.33906e-29
-1.03258e-27
-8.26747e-28
-3.49875e-28
1.85179e-28
-2.00108e-28
1.96444e-29
-6.00692e-30
-1.57379e-28
1.08553e-28
6.15301e-29
-3.32913e-57
-1.87414e-57
-1.57701e-50
-1.94533e-50
-1.78344e-52
-1.59527e-52
2.49633e-62
6.2304e-63
-3.67744e-31
-5.53345e-31
-2.27824e-30
-1.78238e-30
-3.8489e-33
-2.36003e-33
2.29134e-34
1.63252e-34
6.55495e-37
4.71569e-37
5.47288e-38
6.31443e-37
1.08211e-37
1.95368e-36
1.35518e-36
3.18283e-28
1.83478e-28
6.47126e-29
-2.35671e-28
6.72669e-27
6.36518e-27
3.77855e-27
1.12297e-26
1.20437e-26
9.88049e-27
7.36836e-27
7.67206e-27
5.29947e-28
1.36009e-27
3.3503e-27
5.54322e-27
4.83139e-28
5.11805e-28
1.52476e-30
5.89585e-31
1.08096e-28
1.1089e-28
4.58765e-31
-2.21783e-29
-6.8004e-29
1.43066e-30
3.38935e-27
1.24108e-26
-4.62907e-28
-1.46617e-28
3.95241e-27
2.9752e-27
3.27829e-26
3.00026e-26
-2.02381e-28
-6.31118e-29
-7.04405e-28
-6.05781e-28
-5.45456e-28
-1.03155e-27
-1.31579e-27
-1.3688e-27
-1.62237e-27
-1.60116e-27
1.98978e-29
3.10605e-29
1.88525e-29
-2.54976e-31
-2.28592e-31
-9.46301e-32
-1.19255e-28
-1.20412e-28
-5.08513e-29
-6.25955e-29
8.90041e-30
2.37074e-30
-1.44637e-28
-2.69182e-28
4.97896e-30
-6.16051e-29
5.69726e-31
4.94723e-29
4.39969e-26
2.52948e-26
4.3026e-27
-1.13493e-27
1.82797e-26
3.18169e-26
1.45152e-27
3.37579e-27
7.54833e-27
1.36378e-26
1.5748e-26
5.44884e-27
4.47808e-27
1.49134e-27
3.76163e-27
1.07595e-26
1.36525e-26
5.36093e-28
1.98091e-28
7.0406e-27
7.3042e-27
2.4136e-31
2.2123e-31
6.67331e-32
4.22636e-32
-6.34134e-32
-5.16026e-32
3.72599e-30
3.31257e-30
5.11875e-30
-2.75479e-28
-2.57782e-28
-2.58816e-28
-2.31418e-28
-9.09196e-29
-1.36078e-28
-1.49878e-28
-9.42844e-29
-5.16383e-29
-1.06486e-28
-6.18273e-29
-1.07769e-28
-2.85094e-28
-2.91742e-28
-1.64049e-28
-2.08783e-28
3.17685e-28
1.98053e-28
1.74158e-27
2.26729e-27
6.10627e-28
6.94532e-28
3.1453e-28
-1.1175e-29
9.71142e-28
8.05708e-29
3.89655e-28
1.59906e-27
2.69759e-27
2.56136e-27
1.42487e-27
-1.17099e-28
-1.3232e-28
2.5227e-28
4.26332e-28
3.58197e-31
5.18286e-29
-1.98585e-46
4.01951e-46
-1.39155e-46
5.6119e-46
9.31179e-44
-4.02997e-44
3.936e-43
-1.74134e-44
5.75044e-35
8.81976e-35
1.98933e-35
3.10422e-35
2.30029e-36
3.7803e-36
1.55528e-37
8.90894e-38
2.74925e-38
2.0298e-38
-8.49563e-45
-2.80296e-44
2.09823e-45
-2.22904e-45
6.64084e-40
6.10087e-40
9.9704e-47
3.52913e-47
-1.93847e-46
-9.2409e-47
1.68202e-43
8.52916e-44
1.25404e-42
2.39854e-42
2.59273e-42
4.795e-42
8.69823e-45
4.09359e-45
1.78148e-43
3.44054e-43
4.88471e-44
9.70238e-44
2.02426e-48
6.94377e-50
8.24609e-63
2.3493e-62
4.34017e-65
8.61428e-65
2.78518e-69
1.05373e-69
2.75105e-64
5.36659e-64
6.33188e-59
1.53762e-58
8.68627e-52
2.60926e-51
5.56453e-57
7.61513e-57
1.99339e-58
1.4547e-58
2.73575e-26
3.25915e-26
4.71727e-26
1.52895e-28
1.87305e-28
-9.34284e-28
-4.01287e-29
7.35546e-29
1.32267e-28
1.14012e-31
7.1447e-32
1.47223e-25
1.3278e-25
2.40557e-29
2.33562e-29
1.41227e-29
-3.10852e-29
3.81346e-28
-2.77803e-28
-5.90448e-30
9.72468e-30
5.68531e-29
1.39352e-29
5.07469e-28
5.62304e-28
3.15832e-29
3.25066e-29
3.35709e-63
-6.4462e-64
-1.97469e-49
-3.67767e-49
-1.16603e-50
-9.43138e-51
-1.59689e-50
-1.89282e-50
5.78531e-60
1.54501e-59
7.98006e-60
4.04387e-60
-4.11622e-29
-5.42625e-29
4.14345e-36
7.62637e-36
-1.15488e-33
-2.79965e-33
-3.70404e-29
-4.53034e-29
-5.3384e-31
-7.0803e-31
1.79025e-34
2.69541e-34
-2.57177e-35
-1.81784e-35
-1.68827e-38
-2.70565e-38
-6.87335e-36
-4.77953e-36
1.82525e-37
-2.313e-32
2.57885e-27
2.68056e-27
3.81947e-27
4.5428e-27
9.05611e-27
8.54602e-27
5.22267e-27
6.29591e-27
1.70639e-27
6.48698e-28
4.9718e-28
4.43975e-28
2.01332e-27
2.99818e-27
5.32588e-32
5.05018e-31
-3.6823e-35
1.94834e-30
2.99102e-30
6.62479e-29
9.86416e-29
-2.02706e-29
-2.94576e-29
2.52419e-29
-4.22851e-30
-1.92362e-28
-3.85774e-29
-3.2023e-28
-2.49418e-29
-2.357e-28
5.79378e-27
5.22464e-27
2.21412e-26
1.84977e-26
-9.32815e-28
-8.69038e-28
-4.35382e-28
-3.27173e-28
-6.38833e-28
-7.402e-28
-7.3762e-28
-2.39774e-28
-3.34728e-29
-2.15941e-28
-1.30899e-28
2.42921e-29
3.86732e-29
2.38641e-29
2.83204e-29
7.42248e-30
1.45611e-29
6.30559e-30
7.89314e-29
5.66095e-28
2.48534e-28
-1.98784e-29
-1.46118e-29
-1.01881e-28
-1.11979e-28
1.2947e-29
6.97431e-30
-2.35595e-28
-6.14919e-28
6.50008e-29
3.70169e-26
2.25185e-26
2.6641e-26
4.85497e-26
8.48215e-27
2.02363e-27
6.09269e-27
2.76247e-27
5.28707e-27
6.23017e-27
4.55597e-27
4.2066e-27
1.77565e-26
1.93559e-26
9.03196e-27
5.43095e-27
2.85652e-27
1.33042e-27
2.64564e-27
4.76636e-27
3.6606e-31
1.0858e-31
1.13144e-30
1.08549e-30
2.15835e-31
2.41719e-31
-6.27792e-34
1.09235e-33
4.12622e-30
1.45739e-30
2.7765e-30
1.71484e-30
-2.55207e-28
-2.06131e-28
-2.73524e-28
-2.96305e-28
-7.79608e-29
-1.34064e-28
-1.38358e-28
-1.58231e-28
-2.3603e-28
-2.58899e-28
4.51545e-30
8.81e-29
2.33273e-28
1.74832e-29
4.18849e-28
1.65557e-28
3.09617e-28
3.58994e-28
4.44605e-29
5.00741e-28
-8.16591e-30
6.04517e-28
9.49642e-28
1.85323e-28
3.34051e-27
3.10386e-27
-9.32957e-29
-6.25943e-29
-1.03973e-28
-1.20765e-28
2.21132e-28
1.32223e-28
7.14791e-46
-7.43656e-46
5.62645e-44
-2.96243e-44
-4.94202e-44
-4.788e-44
7.33246e-42
1.25464e-41
1.66499e-38
3.82815e-38
1.70009e-34
1.9081e-34
4.76406e-35
4.28018e-35
1.0644e-35
6.49991e-36
4.81206e-36
3.92366e-36
1.46527e-36
2.56163e-36
7.47337e-38
1.27121e-37
1.84156e-46
1.00782e-46
-4.73743e-44
-1.43338e-44
3.76448e-40
2.04278e-40
7.11466e-40
5.30129e-40
1.40317e-40
1.05227e-40
1.22711e-40
-3.56503e-48
-8.89096e-48
-2.07199e-47
-4.51193e-47
4.05924e-46
2.74377e-43
1.42423e-43
6.18902e-43
1.20235e-42
4.21161e-42
6.37395e-42
2.50959e-42
1.89809e-42
1.0302e-42
5.50927e-43
6.55506e-45
1.36263e-44
1.44785e-43
2.77876e-43
5.34921e-44
1.08156e-43
7.36552e-52
1.67425e-51
1.72415e-46
3.77506e-46
1.35744e-60
7.40237e-61
9.08227e-62
4.43516e-62
1.69935e-64
1.39984e-63
2.0131e-68
1.06753e-68
8.39456e-70
3.33637e-70
4.50061e-67
2.31986e-67
-7.16717e-58
-5.49897e-59
-1.42918e-51
-4.78448e-52
-1.34808e-54
-1.10898e-54
2.83539e-57
2.73579e-57
5.40188e-57
5.38037e-57
8.63278e-60
5.8925e-60
2.44244e-70
6.32917e-73
1.15033e-27
1.29388e-26
1.61104e-28
-2.33189e-28
-2.91673e-27
-3.37736e-27
2.47033e-28
2.1924e-28
-3.23589e-27
-3.39326e-27
-1.49891e-27
-4.77498e-27
-4.21799e-27
5.8542e-25
6.47075e-25
2.20289e-29
1.01735e-29
2.33514e-29
-1.1646e-29
4.15387e-29
-2.0272e-28
-1.01027e-29
1.00093e-28
-1.21788e-28
-1.1772e-27
4.11465e-29
2.73012e-29
-1.26245e-29
-3.37292e-30
-1.25251e-30
-8.04904e-31
6.05394e-29
1.08345e-28
-1.06633e-52
-8.12892e-53
1.42216e-59
5.97226e-60
-2.58767e-53
-4.57278e-53
-9.15419e-52
-3.65908e-51
-6.87417e-51
-5.51467e-51
1.12161e-59
3.15183e-59
2.56632e-60
5.27121e-60
-5.18994e-30
-7.55189e-30
-2.29809e-29
-3.08593e-29
1.22451e-35
6.75056e-36
-3.57998e-41
-5.97965e-41
-1.4093e-40
-2.90613e-40
-3.26886e-37
-3.31124e-38
-9.21834e-31
-1.1777e-30
5.66561e-35
9.41702e-35
-8.28985e-37
-4.83838e-37
-5.01282e-35
-3.38438e-35
-6.96418e-39
-1.03884e-38
4.59021e-36
6.27492e-36
3.49686e-27
3.50154e-27
7.05262e-28
-7.52383e-29
1.74261e-26
1.96996e-26
1.07847e-26
1.12496e-26
6.41946e-27
6.28052e-27
2.11254e-27
7.76976e-28
4.36192e-28
1.53504e-27
2.44104e-27
3.6108e-27
2.16111e-30
-1.77293e-30
3.31568e-30
-4.14169e-29
-5.33144e-29
-5.34273e-29
1.07175e-28
-3.90474e-29
-4.06184e-29
-2.15862e-28
-1.95971e-28
-1.50727e-28
-8.92129e-29
1.6425e-26
1.82002e-26
-3.01905e-28
-2.23923e-28
-3.91324e-28
-5.15985e-28
-1.80093e-27
-1.82502e-27
-1.71143e-27
-1.70442e-27
-4.83859e-28
-6.17464e-28
1.06114e-29
1.56881e-29
7.76647e-31
-3.78661e-29
-7.28415e-29
-3.2022e-29
-6.89469e-30
2.03839e-29
-4.89585e-31
1.123e-29
2.8831e-29
4.25722e-31
-2.60504e-31
-1.11178e-32
-2.38991e-33
6.15821e-28
1.74377e-27
3.39093e-28
-1.39577e-28
-1.11368e-28
-1.26709e-29
-1.55722e-29
4.35053e-30
1.63119e-29
1.22634e-29
1.47319e-28
-1.34495e-28
-1.44352e-27
-4.32931e-28
4.08488e-26
2.40259e-26
8.13865e-27
6.02555e-27
4.47296e-27
1.68659e-27
8.33187e-27
1.08721e-26
2.3082e-26
7.81545e-27
3.57575e-27
8.0891e-27
7.13964e-27
4.73716e-27
4.70235e-27
1.90588e-26
1.59302e-26
6.8435e-27
1.09494e-26
-7.82136e-31
-1.23043e-30
1.8932e-31
8.56025e-32
9.03309e-31
6.45017e-31
2.81452e-31
6.85744e-31
-1.10002e-31
-6.08748e-32
-4.08759e-32
3.92678e-33
4.68432e-31
-1.52058e-31
1.80552e-31
3.47149e-30
-2.48012e-28
-1.98312e-28
-1.59522e-28
-1.44918e-28
-2.65063e-28
-2.37399e-28
-2.81623e-28
-2.98703e-28
4.63737e-28
6.37951e-28
4.02992e-29
-1.06332e-28
7.46518e-28
3.66781e-28
-1.41128e-28
2.20325e-29
-7.14851e-29
3.37623e-28
4.11839e-27
3.71056e-27
-9.81989e-29
-5.0966e-29
1.50115e-34
1.40995e-34
-9.60175e-43
-2.98895e-43
-6.71686e-43
-3.53935e-43
-1.35659e-44
-1.26566e-44
2.27143e-43
1.7294e-43
3.74317e-42
3.25066e-42
4.07573e-39
2.41485e-39
3.25079e-36
1.85264e-36
6.27343e-35
5.072e-35
2.1101e-35
3.6434e-35
2.41046e-35
3.67599e-35
3.55249e-36
5.86621e-36
7.82183e-36
1.25582e-35
6.14072e-36
1.36055e-36
2.4001e-36
8.36166e-37
8.21281e-37
4.82908e-37
5.77953e-38
3.41989e-38
-4.43442e-52
-1.92869e-52
1.1261e-45
2.34476e-45
3.13929e-43
5.54036e-43
6.82419e-47
-4.2813e-47
1.26505e-40
3.2357e-40
1.25313e-39
2.26591e-39
7.21168e-41
5.51539e-41
2.42465e-40
1.81492e-40
2.61649e-41
1.97158e-41
1.81397e-47
-1.3717e-47
-1.40881e-46
2.17481e-46
1.8601e-43
5.21321e-43
3.38789e-43
1.73589e-43
3.42931e-42
1.83982e-42
1.47477e-41
1.11229e-41
7.18997e-43
8.58755e-43
1.99393e-44
9.65809e-45
9.03287e-44
7.37906e-44
2.9025e-43
1.51128e-43
6.11313e-45
1.27561e-44
-2.0138e-53
-8.81497e-54
-1.5869e-48
-3.16056e-48
6.18066e-47
2.39413e-47
5.59529e-47
-5.70618e-55
-3.10682e-55
9.69813e-63
1.83954e-62
1.94136e-64
3.79463e-64
9.83147e-67
1.7011e-66
9.77114e-68
-1.51568e-67
9.50634e-68
1.24161e-67
1.02555e-69
1.31823e-69
1.18525e-68
1.66368e-69
4.49976e-66
8.60331e-66
6.27852e-67
2.70534e-67
9.52006e-47
1.94018e-46
-1.39425e-53
-1.20562e-53
2.35417e-56
-1.54751e-56
-7.98747e-57
2.54663e-56
1.74606e-57
1.82166e-57
4.67824e-57
4.10753e-57
3.55928e-59
3.46624e-59
9.28666e-63
1.71046e-62
-3.39871e-71
-3.24407e-71
1.15355e-30
-5.14291e-31
-2.18947e-28
-7.77094e-28
-8.59889e-28
-4.97661e-28
-1.28056e-27
1.72542e-28
-4.7157e-29
2.85156e-28
1.76703e-29
-6.37334e-27
-9.125e-28
-8.77259e-28
1.26005e-26
1.24088e-26
5.23142e-25
4.01141e-25
1.15712e-25
1.53095e-25
4.32221e-29
4.28289e-29
8.50875e-28
2.79196e-27
-1.41225e-28
-3.31905e-28
-1.14756e-27
-1.28261e-27
-8.94432e-28
-5.3004e-28
-7.19263e-28
-9.50813e-28
1.41156e-29
9.22137e-29
2.91312e-29
6.79983e-29
1.23962e-37
4.21911e-36
4.4851e-28
5.4838e-28
1.74353e-35
4.55026e-35
-4.21973e-47
-5.0507e-47
3.36816e-57
5.94513e-57
9.74238e-60
4.13582e-60
-1.08229e-53
-2.2948e-53
-1.70536e-51
-4.9592e-52
-1.98964e-51
-4.79734e-52
-2.70497e-50
-3.68659e-50
-1.1366e-51
-1.03352e-51
1.30396e-55
1.19111e-55
5.84571e-63
2.6746e-63
1.30796e-60
5.87511e-61
1.63665e-62
8.50243e-63
-3.86572e-29
-5.11867e-29
-4.08705e-29
-5.34711e-29
1.07361e-33
8.66568e-34
-1.18642e-33
-5.32726e-34
-1.36223e-40
-1.07502e-40
-1.91986e-40
-7.30134e-38
-5.33278e-37
-1.72642e-29
-1.32181e-29
-1.89946e-32
-1.33547e-32
-1.37677e-33
-7.51798e-34
7.82555e-37
-5.671e-37
-1.78754e-39
-2.17154e-39
2.69123e-33
2.27112e-33
-2.10406e-36
-1.54408e-36
1.20069e-37
7.02294e-38
1.37379e-33
-1.85878e-35
6.47986e-27
6.10433e-27
1.02715e-27
3.74758e-29
1.48749e-26
1.53217e-26
1.10227e-26
1.0869e-26
5.30114e-27
5.27699e-27
3.7961e-27
1.32688e-27
1.4953e-27
1.43025e-27
-2.50476e-33
4.172e-35
3.40425e-30
-3.67171e-29
3.58248e-27
1.3778e-26
-2.71633e-28
-3.64095e-28
-1.79979e-27
-1.41962e-27
-1.45677e-27
-2.52645e-29
-1.36808e-28
2.58278e-29
6.93244e-31
1.44308e-30
-1.72232e-28
-3.37189e-28
-1.68073e-28
1.95445e-29
2.28543e-30
-6.45843e-31
6.65793e-33
-5.86919e-32
4.41848e-33
5.80937e-28
1.88457e-27
-1.37087e-28
-1.25866e-28
-3.12461e-29
-8.86273e-29
9.73076e-30
-7.80132e-28
-4.07203e-28
-5.99436e-29
-1.44866e-27
2.87988e-26
3.39229e-26
2.85874e-26
7.91803e-27
5.78122e-28
2.88366e-27
8.46977e-27
2.06781e-26
3.89173e-26
1.60354e-27
8.03967e-27
1.94445e-26
8.50226e-27
1.3066e-26
1.18036e-26
4.62178e-27
2.05333e-27
1.00884e-26
9.2352e-27
-5.19107e-30
-8.19878e-30
-1.30992e-29
-1.325e-29
-1.51759e-30
-1.01174e-31
2.34769e-31
5.38177e-31
4.4153e-31
7.66159e-33
-3.59007e-32
4.73594e-34
2.87235e-33
-1.18378e-32
2.24545e-30
2.07387e-30
8.83744e-31
1.22938e-28
1.01975e-28
-1.49266e-28
-1.45315e-28
-2.72349e-28
-2.72842e-28
8.09146e-28
1.06407e-27
-1.55805e-28
-5.96287e-29
2.45541e-27
1.80991e-27
2.39634e-38
1.40406e-38
-9.89595e-33
-1.1339e-32
3.06113e-43
5.87148e-43
2.64351e-36
4.09266e-36
4.99778e-40
2.53946e-40
1.747e-46
-6.74064e-45
8.47738e-44
1.72666e-44
2.46911e-43
1.52532e-43
1.25707e-43
-1.18365e-39
-2.1103e-39
7.83296e-39
1.30328e-38
2.33619e-39
1.28261e-39
1.85124e-38
3.28796e-38
3.91411e-35
6.12259e-35
1.31511e-34
1.15112e-34
8.85916e-35
9.97998e-35
7.17149e-35
1.05394e-34
5.50083e-35
7.78206e-36
9.53871e-36
9.84039e-36
1.55284e-35
1.2253e-36
2.17217e-36
8.26532e-37
8.60488e-37
1.72429e-38
2.94824e-38
4.62415e-38
7.78956e-38
4.8189e-50
2.46237e-50
1.16484e-45
5.58954e-46
1.4406e-44
7.83094e-45
1.59174e-43
-2.19619e-43
-6.69846e-44
9.85957e-44
4.21704e-44
4.54217e-40
3.23433e-40
3.96281e-40
2.03171e-40
1.20894e-39
8.98989e-40
5.89599e-40
6.4593e-40
1.74423e-40
3.02709e-40
4.61021e-41
3.46931e-41
3.21851e-41
-2.65268e-50
-1.33658e-49
-4.50305e-47
-2.19773e-47
2.63467e-43
1.33594e-43
1.88582e-44
4.01701e-44
6.5334e-43
3.17959e-43
1.10669e-41
1.99097e-41
4.57541e-42
3.45568e-42
3.06239e-42
6.55436e-45
3.05884e-45
7.99106e-44
1.55377e-43
5.64231e-44
1.91149e-43
3.73191e-43
5.67267e-45
1.19517e-44
2.62633e-44
-1.17182e-49
-4.42606e-50
-3.69213e-49
-8.49488e-49
2.36169e-48
-1.95184e-48
5.52612e-48
1.93187e-47
-3.57729e-56
-1.12718e-56
1.88315e-62
-1.00013e-63
2.17884e-65
7.64122e-66
8.046e-66
7.27365e-64
1.40331e-63
2.1839e-62
1.07676e-62
3.36522e-64
6.79727e-64
-1.10698e-66
2.66429e-65
-2.2069e-68
-7.62583e-68
3.27832e-69
6.31173e-69
6.19434e-70
5.47608e-69
2.92622e-66
1.59197e-66
1.15496e-66
2.19629e-66
1.005e-64
5.12062e-65
1.49832e-48
6.17797e-49
5.20894e-51
5.36594e-52
-7.02018e-54
-7.38606e-54
-1.57208e-53
-2.59011e-53
-1.16178e-51
-2.30034e-51
-1.44976e-55
-3.45135e-55
6.14834e-56
5.39214e-56
3.7056e-60
6.27513e-60
1.71943e-57
1.74865e-57
3.28597e-58
2.43128e-58
3.60089e-59
3.46727e-59
5.80721e-65
7.10181e-65
-1.26549e-70
-5.19255e-70
-1.84605e-70
-1.13368e-28
-8.32322e-29
1.20648e-25
9.4606e-26
-2.5356e-27
-1.52717e-27
-1.97037e-27
-1.02235e-27
1.16717e-28
1.58314e-30
-3.49431e-27
1.8649e-28
6.69769e-29
-3.71569e-29
1.02666e-31
7.24422e-32
-5.05598e-27
-5.46907e-27
9.4692e-26
6.96057e-26
3.85992e-26
-3.2625e-26
4.24582e-25
4.2507e-25
3.0263e-25
4.31197e-25
-3.50856e-27
-4.31318e-29
-4.54539e-28
-8.35909e-28
-3.63291e-29
1.08148e-27
8.52878e-29
6.11277e-29
1.42209e-29
1.17468e-27
-9.36884e-28
1.66472e-27
-1.29176e-27
-3.80771e-27
-1.87073e-28
-5.36461e-28
3.31119e-29
-1.54157e-24
-1.92251e-24
-1.4119e-24
2.67553e-32
-3.87404e-32
-4.83289e-31
2.63023e-28
1.77257e-28
4.7788e-38
1.27693e-37
-5.24957e-40
-1.34885e-40
-6.98394e-53
-1.66014e-53
8.46372e-56
1.10863e-55
8.72616e-57
1.46901e-56
5.51001e-60
2.35045e-60
3.1701e-57
1.71053e-57
-1.45742e-53
-7.5685e-54
-1.91757e-48
-4.38658e-48
-1.05672e-51
-2.44648e-52
-3.70016e-51
-1.86097e-51
-4.82441e-50
-7.60795e-50
-1.36182e-51
-9.16134e-52
-3.39437e-52
-3.05253e-52
3.25356e-58
3.11103e-58
1.9355e-62
1.04574e-62
-7.35015e-66
-1.46335e-66
1.27564e-61
3.26014e-62
4.23793e-62
1.03737e-62
7.10127e-65
2.66776e-65
1.11035e-63
4.78604e-64
-2.10919e-29
-2.87737e-29
-2.90226e-29
-2.1751e-29
1.07633e-33
1.27798e-33
-3.84149e-34
-9.0379e-34
-6.40873e-34
-2.41009e-33
5.65448e-36
9.36015e-37
-9.56132e-37
2.31826e-36
-1.09526e-30
-7.61414e-31
-7.02533e-32
-5.64e-32
-6.23604e-33
-3.78391e-33
-2.89753e-35
-1.89642e-34
-2.62536e-36
-1.83595e-36
-2.64751e-39
-3.21833e-39
-2.68699e-34
-3.48534e-34
1.43088e-34
1.07449e-34
-3.61994e-36
-2.78166e-36
4.53589e-38
3.21644e-38
-1.8728e-29
-1.64709e-29
5.70597e-27
8.94953e-27
6.45822e-27
1.2954e-27
1.46536e-27
1.3539e-26
1.3399e-26
4.28196e-27
-5.52877e-32
-1.34581e-29
-1.43228e-29
-1.31615e-27
-2.10323e-28
-1.20885e-27
-9.55313e-28
-4.7829e-28
-5.41222e-28
-5.19089e-28
-4.94521e-30
5.80268e-29
7.85262e-30
5.23176e-30
2.37262e-30
-3.74088e-33
1.40877e-34
7.56801e-30
2.90445e-30
-5.40619e-32
1.36311e-27
1.1581e-27
-1.15046e-29
5.59176e-30
-4.77598e-28
-3.62088e-28
-5.02627e-28
-6.58976e-28
-4.93103e-30
-3.19099e-28
-7.63931e-29
3.25412e-26
3.83667e-26
9.04592e-27
1.46901e-27
2.37366e-27
8.47293e-27
3.49497e-26
1.881e-26
1.31898e-26
4.95863e-27
1.80328e-27
8.43648e-27
9.29133e-27
1.04914e-26
-1.92111e-31
4.95056e-31
-1.28015e-29
-5.20064e-30
3.37141e-31
4.38447e-31
9.97059e-31
2.79525e-31
-6.76193e-33
-1.72161e-32
-1.82298e-30
-3.42689e-29
-3.4546e-29
3.64147e-29
-5.6073e-29
-2.51267e-28
-2.16699e-28
1.11793e-28
7.20574e-28
7.81842e-33
1.11046e-32
-1.00996e-29
-1.21552e-29
-8.30974e-33
-5.52395e-33
2.42022e-42
1.63999e-42
-2.75023e-46
-3.06397e-47
7.46081e-36
1.14829e-35
-7.45017e-42
-4.85845e-42
2.7703e-38
4.46672e-38
-1.89608e-39
-2.74079e-39
2.01209e-44
-1.34077e-44
3.98796e-44
2.59608e-44
-2.64769e-44
-7.36981e-45
8.81457e-44
5.99842e-44
-2.90889e-41
-9.14692e-41
1.40247e-38
2.32054e-38
4.35936e-39
7.30094e-39
9.06589e-40
1.69701e-39
1.35641e-35
2.22425e-35
2.42688e-35
3.88275e-35
9.71787e-35
1.45276e-34
3.74921e-35
2.24205e-35
2.057e-34
2.19131e-34
6.48681e-35
7.64951e-35
9.77926e-35
6.55402e-35
4.8052e-36
2.9259e-36
7.7205e-37
6.92075e-37
1.05063e-36
1.76146e-36
2.58833e-38
1.52408e-38
6.05577e-38
1.02358e-37
-1.50371e-51
-6.45752e-52
-1.91248e-50
-1.02077e-50
4.81502e-46
2.31411e-46
1.67693e-43
2.96816e-43
1.91655e-42
3.38629e-42
-4.02553e-44
-1.32602e-43
9.14672e-46
9.03733e-46
2.04776e-42
1.90207e-43
5.8902e-40
8.19704e-40
6.9948e-40
1.33076e-39
9.75704e-39
1.04261e-38
3.9554e-41
3.00509e-41
2.05763e-40
1.8575e-40
2.01549e-40
2.16817e-40
5.22387e-40
4.16602e-40
3.67288e-41
3.89445e-41
8.06918e-41
6.06303e-41
9.54643e-45
2.04431e-44
-1.92758e-48
-7.87903e-49
-5.38664e-47
-4.45315e-47
-6.91847e-46
-3.96924e-46
9.83027e-43
5.21847e-43
8.72015e-44
4.27494e-44
2.09733e-43
3.98675e-43
9.75418e-42
1.76303e-41
8.25256e-42
6.22727e-42
1.06596e-44
5.04318e-45
5.54061e-44
1.08703e-43
5.06971e-44
1.02598e-43
2.17473e-43
4.34705e-43
2.47827e-44
2.49023e-44
-8.39314e-54
-3.55297e-54
-1.24822e-50
-5.59422e-51
-7.64342e-49
-1.554e-49
-6.33077e-49
-7.10583e-49
6.71637e-47
1.57087e-46
-4.34972e-55
-2.34657e-55
8.38485e-59
5.05714e-59
8.89546e-64
1.27577e-63
3.442e-62
6.4314e-62
4.33068e-63
1.24759e-62
1.90686e-64
3.7325e-64
-1.7978e-65
-3.73345e-65
1.42269e-63
3.13871e-63
5.1859e-65
1.00193e-64
1.35157e-65
6.78199e-66
1.63233e-66
6.4509e-67
2.31907e-68
4.44954e-68
3.16004e-65
6.19245e-65
1.4859e-65
2.87125e-65
1.26953e-65
5.49264e-66
4.76868e-65
2.02811e-65
1.70928e-48
7.81836e-49
4.9125e-49
1.20973e-48
-8.86481e-52
3.85299e-51
-6.9659e-54
-5.9573e-54
1.81543e-53
1.30567e-52
-4.56889e-52
-5.8653e-52
7.6713e-56
-3.68556e-56
-1.86401e-55
-1.14401e-54
1.8527e-56
3.52093e-56
4.01066e-56
2.29779e-56
3.11609e-57
3.02568e-57
1.89959e-58
1.62181e-58
1.89353e-59
1.96605e-59
1.34078e-61
2.45543e-61
4.15692e-65
-4.82916e-67
1.27432e-66
5.02827e-66
-1.09281e-69
-5.96027e-29
-2.88914e-29
-5.88644e-32
5.18728e-32
1.82575e-25
1.59874e-25
2.69109e-29
-4.54189e-30
1.13811e-26
2.3399e-27
-1.96346e-27
-1.886e-27
-5.06325e-27
-6.28326e-27
-6.54321e-27
-4.16358e-27
-6.71086e-29
-1.03675e-27
5.27894e-29
6.96124e-28