/*--------------------------------*- C++ -*----------------------------------*\
  =========                 |
  \\      /  F ield         | OpenFOAM: The Open Source CFD Toolbox
   \\    /   O peration     | Website:  https://openfoam.org
    \\  /    A nd           | Version:  7
     \\/     M anipulation  |
\*---------------------------------------------------------------------------*/
FoamFile
{
    version     2.0;
    format      ascii;
    class       volScalarField;
    location    "0.14";
    object      p;
}
// * * * * * * * * * * * * * * * * * * * * * * * * * * * * * * * * * * * * * //

dimensions      [0 2 -2 0 0 0 0];

internalField   nonuniform List<scalar> 
238806
(
6.57731e-07
6.53847e-07
-7.15179e-08
8.71888e-08
-5.98368e-10
5.904e-07
5.9859e-07
6.84216e-07
7.57272e-07
1.37927e-07
1.60066e-07
2.25119e-07
6.62385e-08
6.21235e-08
-1.04465e-07
-1.19516e-07
1.11859e-07
7.13558e-08
2.11868e-06
2.13569e-06
8.47544e-08
7.48679e-08
-1.03099e-07
-7.08578e-08
-4.21601e-08
7.3364e-08
1.59368e-08
6.79028e-08
-2.34526e-08
-1.13427e-07
1.88743e-06
2.09642e-06
4.22752e-08
6.38191e-08
1.26515e-07
1.4122e-07
2.91489e-10
2.59412e-10
1.14712e-07
2.42335e-07
1.86607e-07
-3.35705e-08
2.3451e-06
2.57905e-06
1.90724e-06
1.88815e-06
-5.3246e-08
-3.79261e-08
8.56688e-08
1.07113e-07
2.60152e-07
2.70684e-07
7.33968e-08
6.87104e-08
-1.01119e-10
-1.02961e-10
1.48413e-07
4.1843e-08
1.35018e-07
2.11489e-07
1.54461e-07
3.08339e-07
1.84053e-07
2.51239e-07
2.92517e-07
1.70042e-06
1.70195e-06
8.62937e-07
7.73557e-07
4.30016e-07
3.8197e-07
5.7766e-08
3.88815e-08
1.04097e-07
8.27023e-08
1.95661e-07
1.81397e-07
1.26157e-07
1.4066e-07
7.0898e-10
7.15659e-10
5.92751e-08
8.7891e-08
1.02388e-06
1.08093e-06
3.7396e-07
3.34158e-07
2.1622e-08
-5.71057e-08
6.00758e-08
2.27561e-08
3.0906e-07
1.96427e-07
1.9494e-06
1.89734e-06
2.47151e-07
2.74724e-07
1.41583e-07
1.06142e-07
-2.01573e-08
1.67892e-06
8.72281e-07
8.2245e-07
7.36571e-07
7.39353e-07
2.97424e-08
2.33209e-08
8.96096e-08
7.25029e-08
6.12141e-08
4.01766e-08
1.87934e-07
2.10183e-07
2.41294e-07
2.31333e-07
6.96668e-08
7.71957e-08
2.391e-10
2.39971e-10
1.52492e-10
-1.34599e-07
-1.28874e-07
8.45323e-07
7.9715e-07
6.59234e-07
6.67792e-07
-1.29769e-07
-1.51107e-07
-5.68886e-09
-2.98468e-09
2.52286e-07
-1.22912e-08
4.07366e-08
-4.66385e-08
1.12001e-07
2.58944e-07
1.79142e-06
2.01058e-06
-2.49792e-07
-7.97098e-08
-1.31586e-07
-8.17231e-08
1.79998e-07
1.23972e-06
9.93963e-07
1.10993e-06
1.04957e-06
7.32671e-07
7.75249e-07
5.14216e-07
4.79153e-07
3.23942e-07
3.03486e-07
1.95347e-08
1.08017e-08
7.00371e-08
5.80275e-08
5.5299e-08
3.83332e-08
7.70087e-08
6.83306e-08
1.76049e-07
1.64568e-07
2.69764e-07
2.59157e-07
1.22321e-07
1.36773e-07
9.56795e-10
9.46731e-10
2.88957e-10
2.58051e-10
5.4054e-08
7.87079e-08
-5.29126e-08
-4.14552e-08
-2.30193e-08
9.52316e-07
8.98236e-07
2.91888e-07
2.78751e-07
-1.15737e-07
-1.41573e-07
-7.30695e-08
6.44779e-08
-1.85683e-08
3.47621e-08
9.96732e-07
9.12201e-07
2.17253e-06
2.43264e-06
2.32652e-06
2.56581e-06
9.7604e-07
8.13387e-07
1.38105e-07
-2.2996e-09
1.44782e-07
-4.77465e-08
-6.48987e-08
-2.80269e-10
-7.13987e-08
2.03123e-06
2.08274e-06
1.10601e-06
1.04595e-06
9.74253e-07
8.63401e-07
3.2666e-07
2.91398e-07
4.26094e-07
4.58501e-07
-6.16716e-08
-6.83094e-08
2.94037e-09
-4.54799e-09
8.41128e-09
2.1674e-08
1.24053e-08
2.67355e-08
7.71028e-08
9.64348e-08
1.87324e-07
1.70003e-07
2.06873e-07
2.43512e-07
2.33475e-07
2.41373e-07
1.25263e-07
1.39916e-07
2.47323e-09
2.68418e-09
4.95943e-10
5.10683e-10
1.85589e-10
1.65184e-10
2.42078e-10
2.39491e-10
3.5014e-07
4.02094e-07
3.4242e-08
1.00814e-07
-1.31789e-07
-1.4195e-07
-6.2436e-09
-5.50385e-09
7.46357e-07
7.02875e-07
3.47195e-07
3.64084e-07
2.88675e-07
2.62761e-07
1.36291e-07
1.48073e-07
7.10834e-10
4.03219e-09
4.70665e-08
1.0801e-07
1.85927e-06
2.20129e-06
2.07901e-06
2.35494e-06
1.88311e-06
2.09958e-06
1.79294e-07
1.81262e-07
8.12148e-07
9.04875e-07
1.84488e-07
2.11239e-07
-1.72253e-08
-3.35064e-08
2.3854e-07
-5.86965e-08
-3.56669e-09
1.74824e-07
1.2256e-07
1.84781e-06
1.78577e-06
1.40582e-06
1.32891e-06
9.30834e-07
9.84796e-07
5.71886e-07
6.11477e-07
5.75353e-07
5.79615e-07
4.43785e-07
4.29049e-07
-1.68144e-08
-1.3789e-08
-4.64807e-08
-5.60667e-08
3.79035e-09
-3.04124e-09
-6.54268e-10
-1.06324e-08
2.1562e-08
4.83273e-09
2.04317e-08
-3.31013e-10
5.17971e-08
3.65156e-08
6.66999e-08
6.77316e-08
1.35659e-07
1.1693e-07
1.92297e-07
1.8548e-07
2.17608e-07
1.98786e-07
7.23241e-08
7.41903e-08
1.09629e-07
1.12354e-07
1.02724e-07
9.26888e-08
4.93681e-10
4.54688e-10
1.67896e-09
1.80335e-09
7.17913e-10
6.75528e-10
6.81128e-10
6.76508e-10
1.14422e-10
1.07751e-10
2.43334e-10
2.45924e-10
2.40885e-10
4.97029e-08
7.5455e-08
-1.0958e-07
-1.05904e-07
-1.4219e-10
-1.42914e-10
3.10413e-08
3.37352e-08
-3.70581e-08
-2.89063e-08
6.99154e-07
6.5448e-07
7.32192e-07
7.28425e-07
3.0985e-07
3.25209e-07
2.51815e-07
2.40201e-07
-2.32265e-07
-6.98307e-08
-1.17786e-07
-6.39054e-08
4.29585e-07
5.65409e-07
1.31437e-06
1.98893e-06
1.45448e-06
1.21068e-06
1.14845e-06
2.12211e-06
1.90924e-06
2.19923e-07
2.22594e-07
4.18959e-07
5.26668e-07
5.9658e-07
8.22727e-07
-2.24372e-07
-3.9217e-08
-8.60587e-08
3.00235e-07
3.02752e-07
1.99002e-08
8.14471e-08
1.98056e-07
-2.43476e-08
2.27547e-07
5.87132e-08
7.565e-07
6.6697e-07
1.82296e-06
1.95046e-06
1.35602e-06
1.34649e-06
1.39293e-06
1.24153e-06
1.22567e-06
1.06287e-06
1.89219e-07
1.81363e-07
2.55705e-07
2.87043e-07
6.52394e-07
6.42528e-07
7.14828e-07
6.8682e-07
4.54379e-07
4.52329e-07
4.07673e-07
3.80213e-07
2.79022e-07
2.51369e-07
-6.38455e-08
-5.71565e-08
3.90069e-08
4.58283e-08
4.11545e-09
-2.04051e-09
1.30028e-09
-7.96241e-09
-8.22418e-09
-2.17001e-08
-2.22693e-08
-3.98366e-08
4.8918e-08
3.52154e-08
7.3797e-08
7.77752e-08
1.2362e-07
1.07288e-07
2.07073e-07
2.15364e-07
1.34444e-07
1.36223e-07
1.02056e-07
1.13382e-07
9.84989e-08
1.00975e-07
1.13851e-07
4.81863e-10
4.46515e-10
2.51185e-09
2.72638e-09
1.34829e-09
1.25895e-09
1.22745e-09
1.311e-09
5.03127e-10
4.83916e-10
3.15184e-10
3.46914e-10
1.29979e-10
1.16837e-10
2.04015e-10
1.99978e-10
4.99048e-10
5.14038e-10
3.62227e-08
1.80266e-07
3.85186e-08
-3.03231e-08
-2.43408e-08
-2.09654e-07
-1.2743e-07
-1.56858e-07
-1.30022e-07
-9.44103e-11
-9.89468e-11
3.17003e-10
5.28407e-10
-3.80408e-08
-3.51715e-08
-3.39539e-08
-3.59903e-08
-1.23425e-07
-1.4138e-07
6.94614e-07
8.44919e-07
6.34084e-07
6.19982e-07
4.2033e-07
4.27896e-07
3.24532e-07
1.6319e-07
1.3206e-07
1.97007e-07
-7.50416e-09
-1.17381e-07
-2.59944e-08
-7.80296e-08
1.19919e-06
2.11252e-06
1.74296e-06
1.72759e-06
1.64723e-06
1.63262e-06
1.59021e-06
2.29072e-06
2.53408e-06
1.468e-07
1.48297e-07
2.14102e-07
1.93569e-07
2.70658e-07
2.43936e-07
8.495e-07
7.49398e-07
1.53417e-07
1.75006e-07
8.73682e-08
1.89965e-08
2.87279e-08
-5.53955e-08
-2.38457e-07
-8.70435e-08
-1.38184e-07
-8.31891e-08
-1.60814e-08
9.218e-08
5.4304e-07
5.86171e-07
1.19482e-06
1.15275e-06
1.63593e-06
1.57036e-06
1.32186e-06
1.4854e-06
1.77387e-06
1.69015e-06
1.18102e-06
1.24839e-06
2.14223e-07
2.12699e-07
3.62816e-07
3.2252e-07
4.77269e-07
5.43123e-07
5.10214e-07
5.13129e-07
6.46789e-07
5.8521e-07
3.55966e-07
3.56717e-07
3.82058e-07
3.94472e-07
2.7301e-07
2.90435e-07
-4.04091e-08
-4.48915e-08
-1.21043e-07
-9.83926e-08
4.9636e-08
5.91512e-08
2.49261e-08
3.20518e-08
1.07421e-08
1.78379e-08
1.07196e-08
2.0389e-08
2.33077e-09
-5.90879e-09
-4.48539e-09
-1.69115e-08
-1.67541e-08
-3.23927e-08
6.27054e-08
7.61702e-08
4.57856e-08
3.36073e-08
9.81888e-08
1.00798e-07
8.5083e-08
9.24219e-08
1.12291e-07
9.79451e-08
1.42282e-07
1.65467e-07
1.38249e-07
1.34129e-07
2.4594e-07
2.49735e-07
1.61201e-07
1.6936e-07
1.33099e-07
1.25338e-07
1.13585e-07
1.02147e-07
8.38702e-08
7.57409e-08
9.5058e-10
9.45101e-10
4.4869e-10
4.89071e-10
1.70197e-09
1.82155e-09
9.02459e-10
8.94964e-10
6.92449e-10
7.35806e-10
6.4619e-10
6.36453e-10
3.53744e-10
3.16606e-10
1.86727e-10
2.09489e-10
1.2549e-10
1.38367e-10
1.65312e-10
1.70244e-10
2.97696e-10
2.63639e-10
3.45977e-10
2.94998e-10
2.57191e-10
2.54412e-10
-6.3219e-08
-2.73e-08
3.61501e-07
2.09632e-07
-4.88382e-08
-4.59826e-08
2.8444e-08
5.89086e-09
-2.52498e-08
-9.48434e-10
-1.10268e-07
-1.00511e-07
-7.75702e-11
-7.9762e-11
-3.24237e-11
-5.27547e-12
-3.56805e-09
-3.99617e-09
-6.9442e-09
-6.15631e-09
-1.78859e-08
-1.98409e-08
-3.51279e-08
-4.38469e-08
-2.21472e-08
-4.17337e-08
5.73357e-07
4.63082e-07
8.24382e-07
9.48826e-07
9.84623e-07
1.08264e-06
5.75841e-07
6.45409e-07
4.70018e-07
4.80172e-07
3.00056e-07
3.30439e-07
2.31718e-07
2.30716e-07
-1.04235e-07
-1.30668e-07
9.28988e-08
8.48959e-08
3.20082e-08
6.98401e-09
-2.42359e-08
2.46282e-07
1.56213e-07
1.16175e-06
1.08711e-06
1.89007e-06
1.49471e-06
1.46347e-06
1.41153e-06
2.23765e-06
2.48408e-06
1.33048e-07
1.34356e-07
2.51849e-07
2.27929e-07
1.98551e-07
2.0079e-07
6.55826e-07
7.24986e-07
9.46079e-07
1.08596e-06
-1.66349e-08
2.87788e-08
-1.39631e-07
6.68062e-09
9.66621e-08
9.3487e-08
2.05705e-07
-2.27792e-08
3.05901e-07
2.88045e-07
2.4225e-07
6.2441e-08
6.58669e-09
-9.48542e-08
9.41957e-09
6.71154e-07
6.13165e-07
1.69389e-06
1.55217e-06
1.51211e-06
1.52033e-06
1.58008e-06
1.40514e-06
2.57838e-07
1.7448e-07
2.54248e-07
2.61631e-07
2.2403e-07
4.72433e-07
5.28705e-07
5.63615e-07
4.96926e-07
6.22827e-07
7.27402e-07
6.11605e-07
6.35009e-07
4.87304e-07
5.21691e-07
3.03139e-07
3.11689e-07
4.01396e-07
4.02716e-07
3.4861e-07
3.11874e-07
-2.13166e-08
-2.50914e-08
-4.56878e-08
-4.05437e-08
-8.46476e-08
-9.44e-08
-5.87335e-08
-6.67348e-08
3.16575e-08
4.26978e-08
4.58401e-08
5.43189e-08
2.65406e-08
3.44834e-08
1.68782e-08
1.04313e-08
9.82648e-09
2.06545e-08
-2.08714e-09
-1.32537e-08
-1.12975e-08
-2.62816e-08
6.73135e-08
8.25795e-08
8.11959e-08
8.56068e-08
7.01108e-08
6.24114e-08
1.52463e-07
1.3898e-07
1.50042e-07
1.28497e-07
1.58473e-07
1.48817e-07
1.97984e-07
1.96637e-07
2.22596e-07
1.65863e-07
1.61662e-07
1.49946e-07
1.7415e-07
9.20765e-08
9.21135e-08
1.11039e-07
1.23572e-07
8.10466e-08
8.99443e-08
2.03147e-08
2.17027e-08
9.48029e-10
9.47248e-10
5.47403e-10
5.66661e-10
9.66944e-10
9.89706e-10
1.93078e-09
1.78994e-09
1.29911e-09
1.39242e-09
1.22843e-09
1.31453e-09
5.13009e-10
4.74482e-10
4.92557e-10
4.94392e-10
4.32362e-10
4.20713e-10
3.87378e-10
4.10348e-10
3.60306e-10
3.87712e-10
2.06595e-10
2.18472e-10
1.61941e-10
1.47234e-10
1.43626e-10
1.44619e-10
1.97188e-10
1.95644e-10
1.80398e-10
1.85697e-10
2.95234e-10
2.61729e-10
2.98347e-10
2.65681e-10
3.76093e-10
3.49333e-10
2.37678e-10
1.19951e-10
2.14469e-10
-1.40822e-08
-1.80694e-08
3.99122e-07
2.42841e-07
4.31705e-07
4.36604e-07
3.85964e-07
4.47602e-07
6.58699e-07
-5.48464e-08
-4.85893e-08
2.23355e-08
4.01782e-08
9.34455e-09
2.83966e-08
-6.55758e-08
-9.53137e-08
-2.74597e-08
-4.17578e-08
7.45566e-09
6.11424e-09
-3.60352e-11
-3.30362e-11
-8.6588e-11
-8.89649e-11
-1.14011e-10
-1.1606e-10
-6.28604e-11
3.31764e-12
7.76408e-09
8.38877e-09
-1.89477e-10
9.75222e-11
-4.48129e-09
-3.9312e-09
-5.42221e-09
-4.75765e-09
-2.32615e-08
-2.10652e-08
-3.91449e-08
-2.03843e-08
-4.38699e-08
-4.14481e-08
-3.56251e-08
2.97618e-07
3.52425e-07
7.06779e-07
4.98128e-07
8.14075e-07
9.67886e-07
7.32504e-07
6.4559e-07
6.80714e-07
7.14921e-07
4.63072e-07
4.91407e-07
3.05792e-07
3.01019e-07
3.75374e-07
4.21652e-07
1.81759e-07
1.87978e-07
-7.27467e-08
-8.00074e-08
1.18431e-07
1.13184e-07
4.95165e-09
7.00015e-08
2.28269e-07
1.27767e-07
1.25493e-06
1.33994e-06
1.11727e-06
1.09969e-06
1.38802e-06
1.22011e-06
2.06208e-06
1.84106e-06
1.62205e-07
1.63878e-07
2.06017e-07
1.86531e-07
3.15622e-07
4.16415e-07
6.63631e-07
5.98917e-07
1.00908e-06
1.11171e-06
1.11523e-07
9.67849e-08
-8.15525e-08
-9.81684e-08
-7.85575e-08
-1.50538e-07
7.08133e-08
6.37902e-08
2.05232e-08
1.04215e-09
-8.0951e-08
-7.13842e-08
2.25048e-07
1.86554e-07
-5.12036e-08
9.97264e-10
1.39492e-06
1.67792e-06
1.28135e-06
1.2289e-06
1.46839e-06
1.29879e-06
1.50046e-06
1.58187e-06
3.1289e-07
3.05462e-07
3.01085e-07
4.12792e-07
4.6496e-07
5.75705e-07
5.08779e-07
7.40551e-07
7.32728e-07
5.57909e-07
5.82121e-07
3.16311e-07
3.16863e-07
3.40691e-07
3.64063e-07
-4.07042e-08
-3.64589e-08
-4.99855e-08
-5.54304e-08
-9.20429e-08
-8.02492e-08
-5.37219e-08
-4.6457e-08
-6.6197e-08
5.36967e-08
6.44162e-08
4.20597e-08
3.59966e-08
1.06801e-08
1.86068e-08
2.1485e-08
9.50196e-09
1.08367e-09
2.02355e-08
1.08833e-07
1.11846e-07
5.84802e-08
5.2328e-08
8.37222e-08
7.72399e-08
1.12686e-07
1.03301e-07
1.53222e-07
1.685e-07
1.42511e-07
1.34348e-07
1.54148e-07
1.56775e-07
2.78159e-07
2.8158e-07
2.80952e-07
2.76799e-07
1.97681e-07
1.83268e-07
1.81532e-07
8.31418e-08
8.33011e-08
1.17989e-07
1.32284e-07
8.54509e-08
9.4915e-08
9.55139e-10
9.49411e-10
9.42625e-10
9.41844e-10
5.8742e-10
5.94161e-10
5.21261e-10
5.27291e-10
1.70543e-09
1.80507e-09
1.85751e-09
2.00522e-09
1.33409e-09
1.42857e-09
9.60363e-10
9.05438e-10
7.82921e-10
7.63228e-10
6.11316e-10
6.23857e-10
4.7135e-10
4.74252e-10
5.20416e-10
5.09557e-10
2.06736e-10
1.97366e-10
3.58657e-10
3.67134e-10
2.88238e-10
2.68391e-10
3.89179e-10
4.1554e-10
3.51631e-10
3.76953e-10
1.53195e-10
1.41126e-10
1.99836e-10
2.05173e-10
1.55482e-10
1.68707e-10
1.2429e-10
1.3478e-10
2.01486e-10
2.05498e-10
1.89599e-10
1.84474e-10
2.93695e-10
2.60685e-10
2.31015e-10
2.27032e-10
3.11847e-10
3.05756e-10
3.50593e-10
3.58177e-10
2.63551e-10
2.61542e-10
2.28128e-10
2.24008e-10
2.66165e-07
2.25931e-07
2.05624e-07
-2.79733e-08
-4.12627e-08
1.74681e-07
6.47275e-08
1.25637e-07
3.43634e-08
3.71144e-09
3.27714e-09
3.37309e-07
3.06175e-07
-5.6965e-08
-5.61853e-08
-4.07968e-08
-3.59673e-08
2.69898e-08
1.57835e-09
-2.41089e-07
-7.26599e-08
-1.19682e-07
-9.10566e-08
7.56386e-09
8.27854e-09
4.75078e-09
4.98944e-09
-3.55243e-10
-3.73157e-10
-8.34359e-11
-8.45174e-11
-9.08724e-11
-8.82526e-11
-9.18601e-11
-9.48592e-11
-1.09168e-10
-4.88148e-11
-1.99182e-11
-2.61599e-11
3.77373e-08
4.13574e-08
7.05117e-10
8.78385e-10
7.31713e-10
1.64327e-09
2.8491e-08
3.11881e-08
-1.76296e-09
-2.20622e-09
-7.08538e-09
-7.9867e-09
-2.12587e-08
-1.92776e-08
-2.6479e-08
-2.80026e-08
-3.33804e-08
-2.88873e-08
-3.46446e-08
-1.13105e-07
7.40666e-07
6.45041e-07
1.10129e-06
9.69821e-07
5.5619e-07
5.28232e-07
4.56743e-07
5.12579e-07
3.35756e-07
3.41186e-07
2.41172e-07
2.05393e-07
2.14216e-07
2.57042e-07
-1.17172e-07
-7.67792e-08
-7.04057e-08
-6.62505e-08
-5.26414e-08
1.37591e-07
1.15012e-07
1.47387e-08
2.4291e-08
6.70106e-07
3.78869e-07
5.15791e-07
3.70728e-07
8.47972e-07
7.36267e-07
1.31559e-06
1.69874e-06
1.50385e-06
1.25051e-06
1.21355e-06
1.82858e-07
1.67187e-07
1.53035e-07
1.58456e-07
2.37227e-07
2.62683e-07
5.86591e-07
4.84707e-07
3.993e-07
2.85179e-07
3.82623e-07
1.86888e-07
9.94413e-08
4.9523e-08
7.84978e-08
-4.84484e-09
5.38002e-08
-1.13104e-07
8.2939e-08
1.77094e-07
1.55025e-07
1.14778e-07
8.08807e-08
4.03007e-08
3.77276e-08
-6.0422e-08
-5.89283e-08
1.16595e-07
5.68799e-07
4.74714e-07
1.05919e-06
1.06732e-06
1.36684e-06
1.43862e-06
1.20706e-06
1.20215e-06
3.87562e-07
3.98286e-07
3.01669e-07
2.96242e-07
4.0418e-07
4.63369e-07
5.25155e-07
5.75926e-07
4.82934e-07
5.00171e-07
6.49551e-07
6.55271e-07
3.50141e-07
3.39553e-07
-3.06862e-08
-2.70614e-08
-5.18874e-08
-4.52295e-08
-5.09116e-08
-4.55818e-08
-1.05245e-07
-1.14547e-07
-4.0668e-08
-3.43212e-08
-7.7885e-08
-7.56081e-08
3.99234e-08
3.01352e-08
4.22978e-08
4.99406e-08
6.32061e-09
2.13678e-08
7.51762e-08
7.58036e-08
6.28765e-08
5.82283e-08
9.39625e-08
1.02267e-07
1.02132e-07
8.96138e-08
1.49289e-07
1.54126e-07
1.28287e-07
1.21113e-07
1.75531e-07
1.74893e-07
2.50459e-07
2.47739e-07
2.1794e-07
2.22065e-07
2.1963e-07
2.02932e-07
8.21039e-08
8.00593e-08
7.51395e-08
7.52138e-08
9.9721e-08
1.05589e-07
9.55372e-10
9.62084e-10
5.99321e-10
6.06636e-10
5.77069e-10
5.5456e-10
1.95382e-10
1.08625e-10
8.29369e-10
8.73239e-10
2.263e-09
2.35351e-09
2.1677e-09
2.08501e-09
1.66249e-09
1.54898e-09
1.49338e-09
1.44461e-09
1.23228e-09
1.31773e-09
8.72694e-10
9.28085e-10
4.43445e-10
4.3693e-10
6.32907e-10
6.20049e-10
6.13935e-10
5.86578e-10
5.12173e-10
4.98713e-10
4.22224e-10
4.10555e-10
4.43751e-10
3.09267e-10
3.22187e-10
3.30173e-10
3.51353e-10
3.08468e-10
2.77922e-10
2.57917e-10
3.99817e-10
4.24074e-10
4.14026e-10
4.04937e-10
2.38441e-10
2.37154e-10
2.16684e-10
2.05118e-10
1.80184e-10
1.92577e-10
2.01869e-10
2.10493e-10
1.60759e-10
1.74019e-10
1.93161e-10
2.03856e-10
1.62885e-10
1.58195e-10
8.2073e-11
9.27809e-11
1.58002e-10
1.46893e-10
1.80018e-10
1.75526e-10
2.30766e-10
2.36849e-10
2.96759e-10
2.62767e-10
2.34121e-10
2.40247e-10
3.1045e-10
3.04521e-10
3.07804e-10
3.0042e-10
2.82282e-10
2.78955e-10
2.55563e-10
2.5779e-10
2.5178e-10
2.54374e-10
2.25755e-10
2.23026e-10
1.99432e-10
1.78807e-10
1.57978e-07
1.86814e-07
1.60348e-09
1.0179e-08
1.46788e-07
1.6503e-07
1.67059e-08
-2.12087e-08
1.03797e-07
1.66534e-08
1.4903e-07
6.01443e-08
6.40274e-08
9.69916e-07
1.11559e-06
-7.15193e-08
-5.97402e-08
-8.99372e-08
-3.66595e-08
-4.34429e-08
-1.91969e-08
-3.84955e-08
1.6966e-07
-1.4942e-08
1.02574e-07
-2.54722e-08
-3.65696e-08
-8.63444e-08
-8.02043e-08
-1.80943e-08
-1.27797e-08
5.84193e-09
7.15311e-09
-1.50964e-10
-1.538e-10
-3.32677e-10
-2.95321e-10
1.9606e-11
2.61383e-11
-6.35543e-11
-6.63031e-11
-9.80308e-11
-9.5534e-11
-8.59952e-11
-6.83149e-11
-2.4851e-11
-1.82468e-11
2.43662e-08
2.6661e-08
2.92959e-08
3.20295e-08
8.85318e-10
8.23488e-10
-1.63901e-09
-1.92715e-09
-3.13976e-09
-3.91322e-09
-4.41625e-09
-4.74044e-09
-2.66571e-09
-3.21275e-09
-4.32693e-09
-3.77507e-09
-9.09984e-09
-8.08033e-09
-2.00202e-08
-1.81414e-08
-2.20744e-08
-2.44561e-08
-3.68933e-08
-3.92037e-08
4.5259e-07
4.1943e-07
5.05287e-07
4.15528e-07
9.88952e-07
1.12666e-06
7.98999e-07
8.91959e-07
4.37046e-07
4.10215e-07
3.75487e-07
3.816e-07
2.93494e-07
3.27577e-07
2.60409e-07
2.94687e-07
-6.40617e-08
-2.81005e-08
1.25486e-08
4.28805e-08
8.81797e-08
1.518e-07
1.48393e-07
4.82215e-08
5.34446e-08
3.76949e-07
3.28092e-07
1.14621e-06
9.8529e-07
1.45472e-06
1.66995e-06
1.25924e-07
1.30158e-07
1.74983e-07
1.68809e-07
1.03415e-06
1.14295e-06
5.29712e-07
5.99871e-07
8.03954e-07
6.67855e-07
6.61494e-08
6.90676e-08
-1.98545e-08
1.47201e-07
9.94331e-08
2.48321e-07
1.88138e-07
7.79153e-08
3.40999e-09
1.11692e-07
1.07025e-07
-6.07245e-08
-8.75125e-08
-8.78449e-08
-9.70829e-08
1.62627e-07
1.9385e-07
9.06516e-08
6.42819e-08
8.49402e-08
6.98674e-09
-5.20865e-08
-8.1753e-09
-3.42024e-08
-2.92477e-08
1.21004e-06
8.54562e-07
9.47307e-07
7.77559e-07
1.19176e-06
1.2034e-06
1.84477e-06
2.11878e-06
1.80228e-06
9.47242e-07
9.49194e-07
1.18683e-06
1.15591e-06
4.38233e-07
4.49776e-07
2.87072e-07
3.19665e-07
3.27499e-07
3.62996e-07
5.08003e-07
4.48472e-07
5.62938e-07
5.42453e-07
-2.48383e-08
-2.16365e-08
-3.25727e-08
-3.62816e-08
-3.96125e-08
-3.48156e-08
-7.75255e-08
-7.02371e-08
-9.57955e-08
-1.25615e-07
-1.03864e-07
-1.11246e-07
-1.0897e-07
-7.25943e-08
-8.78129e-08
-5.85473e-08
3.71555e-08
2.83234e-08
8.16344e-08
8.29026e-08
6.40354e-08
6.90053e-08
6.41662e-08
5.72432e-08
1.14077e-07
1.24684e-07
9.28518e-08
8.17803e-08
1.66399e-07
1.72082e-07
1.76643e-07
1.75604e-07
2.22932e-07
2.20738e-07
2.43715e-07
2.25302e-07
9.09809e-08
8.87074e-08
2.75938e-09
2.65049e-09
6.46168e-10
6.30348e-10
6.29682e-10
6.21705e-10
5.58147e-10
5.74838e-10
4.49838e-10
4.88639e-10
6.37316e-11
1.66732e-10
7.32666e-10
7.19421e-10
1.28839e-09
1.22042e-09
1.91689e-09
1.65611e-09
1.66573e-09
1.72208e-09
1.91073e-09
2.06304e-09
1.3828e-09
1.47872e-09
1.60314e-09
1.72245e-09
1.53258e-09
1.22171e-09
1.30684e-09
1.15411e-09
1.17795e-09
1.10557e-09
8.61878e-10
8.11545e-10
2.99427e-10
2.88233e-10
4.64081e-10
4.79527e-10
6.10804e-10
6.22924e-10
5.68154e-10
5.61868e-10
6.59356e-10
6.70664e-10
6.70872e-10
7.0099e-10
4.71617e-10
4.79833e-10
4.52154e-10
4.4001e-10
3.41725e-10
3.2987e-10
2.65344e-10
2.53444e-10
3.51178e-10
2.6817e-10
4.2956e-10
4.25945e-10
3.37556e-10
3.08901e-10
3.7771e-10
3.50783e-10
3.13928e-10
3.03974e-10
2.15627e-10
2.36532e-10
1.88479e-10
1.78187e-10
1.84893e-10
1.87787e-10
1.87882e-10
1.76863e-10
1.21689e-10
1.32413e-10
2.62937e-10
2.5797e-10
1.99267e-10
2.09758e-10
1.39015e-10
1.42413e-10
1.75596e-10
6.9044e-11
6.9476e-11
2.29501e-10
2.26986e-10
1.88915e-10
1.86666e-10
2.22287e-10
1.67632e-10
1.96435e-10
1.91372e-10
2.09129e-10
2.03333e-10
2.39458e-10
2.3395e-10
2.52745e-10
2.51293e-10
2.4302e-10
2.37659e-10
2.98563e-10
2.65371e-10
5.07263e-10
5.21927e-10
3.2833e-10
3.30856e-10
2.71916e-10
2.73299e-10
2.50477e-10
2.47531e-10
2.46568e-10
2.49276e-10
2.58446e-10
2.60561e-10
2.39245e-10
2.36141e-10
2.36057e-10
2.37135e-10
2.19213e-10
2.39906e-10
-6.92006e-08
-8.11044e-08
2.73428e-08
3.44296e-08
-3.85153e-08
3.96837e-08
3.84433e-08
2.26358e-08
-1.29565e-08
7.92592e-08
-2.34205e-08
2.78484e-07
-2.76188e-09
-1.81111e-09
1.29614e-07
1.21975e-07
8.47467e-07
8.62806e-07
2.69097e-07
3.0669e-07
-6.54801e-08
-6.45849e-08
4.13886e-08
5.11349e-08
-2.33799e-08
-7.84818e-09
5.99725e-09
6.25131e-08
1.23409e-07
2.27026e-08
-3.53349e-08
-6.71787e-08
-8.75246e-08
-2.3473e-08
-4.99385e-08
-9.99123e-08
-7.07581e-09
-6.98491e-09
5.03753e-09
5.7698e-09
9.36575e-10
-3.35597e-10
-1.38641e-10
-1.36786e-10
-2.15803e-10
-2.12498e-10
-3.47017e-10
-3.06945e-10
2.39739e-11
2.52192e-11
-3.87449e-11
-3.85537e-11
-7.30443e-11
-7.13123e-11
-9.38604e-11
-9.61612e-11
-1.06932e-10
-1.08875e-10
-7.92198e-11
-8.31814e-11
-4.79114e-11
-2.01011e-11
-8.61537e-12
-1.65794e-11
1.18917e-10
1.26575e-10
4.06759e-08
4.44551e-08
3.46298e-08
3.77902e-08
2.0492e-09
1.9728e-09
3.88939e-09
3.63904e-09
2.38898e-10
-5.76064e-09
-3.30852e-09
-5.46319e-09
-5.11674e-09
2.02696e-08
1.86189e-08
-7.41173e-09
-6.53418e-09
-3.38608e-09
-2.92298e-09
-7.85286e-09
-6.95513e-09
-1.15813e-08
-1.29442e-08
-2.5232e-08
-2.27503e-08
-2.23123e-08
-2.02604e-08
-2.86952e-08
-2.65244e-08
-1.22802e-07
-1.35584e-07
4.85189e-07
4.69007e-07
4.66828e-07
3.77507e-07
8.76901e-07
8.72885e-07
9.87462e-07
1.10267e-06
3.89589e-07
3.65022e-07
5.26555e-07
5.33853e-07
2.71981e-07
2.69659e-07
-1.27912e-07
-1.43703e-07
-6.22315e-08
1.29865e-07
1.44054e-06
1.52592e-06
1.43523e-07
1.38777e-07
1.24874e-06
5.37985e-07
4.85452e-07
7.51701e-07
5.46809e-07
6.41879e-09
3.06952e-08
1.07448e-07
2.92201e-07
2.21163e-07
1.86598e-07
4.13971e-08
-1.39259e-08
-3.55325e-08
-1.22226e-07
-1.19254e-07
-1.3442e-07
1.67876e-07
2.16768e-07
6.32693e-08
6.03754e-08
8.86543e-09
3.52693e-08
-3.30286e-08
5.60167e-07
4.50846e-07
3.93082e-07
7.30661e-07
7.44235e-07
7.92213e-07
8.41624e-07
9.78549e-07
8.48716e-07
1.51276e-06
1.51602e-06
1.87571e-06
1.83637e-06
8.37323e-07
8.35089e-07
1.02575e-06
1.05341e-06
3.9366e-07
4.19346e-07
3.4098e-07
3.52018e-07
4.1691e-07
3.71934e-07
-2.40292e-08
-1.9941e-08
-1.17112e-08
-9.58398e-09
-1.89784e-08
-2.3914e-08
-2.84339e-08
-5.17171e-08
-5.84983e-08
-7.17084e-08
-7.61039e-08
-1.26335e-07
-1.23427e-07
-9.66852e-08
-3.95576e-08
-5.00408e-08
-7.42918e-08
1.09595e-07
1.15802e-07
8.92048e-08
9.12662e-08
5.32912e-08
4.78159e-08
1.2585e-07
1.37859e-07
1.57896e-07
1.57079e-07
2.06991e-07
2.14542e-07
5.98529e-11
1.54232e-10
5.99749e-09
5.72542e-09
7.90643e-10
8.09694e-10
2.18448e-09
2.2647e-09
4.4429e-10
4.34772e-10
5.92097e-10
5.96618e-10
4.77583e-10
5.10195e-10
5.48567e-10
5.70815e-10
5.20374e-10
6.88317e-11
-2.26268e-11
7.82652e-10
8.01205e-10
7.34309e-10
7.06789e-10
6.82066e-10
6.69849e-10
1.54597e-09
1.62847e-09
2.16653e-09
2.12712e-09
2.31932e-09
2.35129e-09
2.34853e-09
2.54296e-09
2.23328e-09
1.56382e-09
1.58462e-09
1.64639e-09
1.77012e-09
1.19985e-09
1.27965e-09
1.14908e-09
1.14992e-09
7.39364e-10
7.84362e-10
8.3272e-10
8.85963e-10
3.48786e-10
3.38112e-10
4.67763e-10
4.53424e-10
5.62045e-10
5.45095e-10
5.98571e-10
6.48825e-10
6.35389e-10
4.91181e-10
4.69047e-10
5.87917e-10
5.88329e-10
6.37531e-10
6.30502e-10
5.45334e-10
5.31762e-10
5.47074e-10
5.38728e-10
4.36021e-10
4.65632e-10
3.67333e-10
3.56217e-10
3.55054e-10
2.5767e-10
2.70696e-10
3.16466e-10
3.00142e-10
4.02027e-10
3.76925e-10
2.91481e-10
2.95868e-10
3.62331e-10
3.72839e-10
3.4524e-10
3.71438e-10
2.68127e-10
2.61486e-10
2.48138e-10
1.56751e-10
1.46929e-10
2.13536e-10
2.26652e-10
1.9324e-10
1.84861e-10
1.93701e-10
1.29743e-10
1.40883e-10
1.45171e-10
3.30522e-10
3.22472e-10
2.06231e-10
2.17435e-10
1.74408e-10
1.81659e-10
1.62847e-10
1.63846e-10
1.38439e-10
1.37564e-10
1.57817e-10
1.6285e-10
2.5921e-10
2.2763e-10
1.01918e-10
1.93709e-10
1.91731e-10
1.52578e-10
1.58936e-10
1.74579e-10
1.70579e-10
1.87379e-10
1.83646e-10
2.1276e-10
2.06805e-10
2.41763e-10
2.36563e-10
2.49362e-10
2.47238e-10
2.17208e-10
2.20062e-10
2.41718e-10
2.36039e-10
2.48017e-10
2.54543e-10
4.64354e-10
4.51624e-10
3.14995e-10
3.07432e-10
3.11944e-10
3.1625e-10
3.2808e-10
3.32334e-10
3.14943e-10
3.1943e-10
2.74925e-10
2.78595e-10
2.58054e-10
2.55e-10
2.91932e-10
2.97655e-10
2.52744e-10
2.5502e-10
2.31514e-10
2.26989e-10
2.3478e-10
2.35973e-10
2.53339e-10
2.51455e-10
2.23862e-10
3.01078e-10
2.08254e-10
1.89207e-09
1.90364e-09
6.22702e-07
5.49171e-07
4.32601e-08
1.54163e-07
1.0341e-07
4.5089e-08
4.64506e-09
1.0443e-07
1.4053e-07
2.86297e-08
-2.46308e-08
-1.8632e-07
3.45878e-09
3.06822e-09
7.22947e-08
6.77664e-08
3.17068e-07
2.7976e-07
7.09498e-07
7.1596e-07
9.67488e-07
1.07121e-06
6.65997e-07
7.10974e-07
1.88785e-07
1.11644e-07
-8.23557e-09
8.98956e-09
4.16204e-08
6.10189e-08
-5.39198e-08
-4.57467e-08
-3.70337e-08
1.36454e-07
5.43639e-08
1.68177e-08
1.61956e-07
2.0436e-07
8.14495e-09
-2.13026e-08
-4.03817e-08
4.10917e-07
3.60668e-07
3.41234e-07
-2.04965e-08
-1.94649e-08
-1.85522e-08
1.0995e-08
9.06748e-09
3.86933e-10
4.09471e-10
-1.85137e-10
-1.85919e-10
-1.39529e-10
-1.43668e-10
-1.34028e-10
-1.34739e-10
-2.0993e-10
-2.07169e-10
-3.60504e-10
-3.1812e-10
-2.19119e-10
-2.30041e-10
1.89634e-11
1.78164e-11
-5.90402e-11
-6.01774e-11
-7.66037e-11
-7.42147e-11
-7.79679e-11
-7.64574e-11
-8.57001e-11
-8.87178e-11
-9.27363e-11
-8.99261e-11
-1.06808e-10
-1.1117e-10
-1.45875e-10
-1.56586e-10
-4.87562e-11
-4.51373e-11
-2.71561e-12
1.89172e-11
-3.33508e-11
-3.51969e-11
-3.93736e-11
-1.97464e-11
-1.35228e-11
5.68887e-13
2.07821e-10
1.88756e-10
3.42593e-08
3.74316e-08
2.88098e-08
2.64554e-08
2.46573e-09
2.58813e-09
3.41707e-09
3.64297e-09
-7.94477e-10
-8.5838e-11
-9.23308e-10
-1.3406e-09
-4.63964e-09
-4.16352e-09
1.44034e-08
1.32719e-08
-1.706e-08
-2.07139e-08
-2.15516e-09
-1.81796e-09
-4.99573e-09
-5.69148e-09
-8.58665e-09
-7.61565e-09
-1.44515e-08
-1.608e-08
-3.18784e-08
-3.50221e-08
-1.86562e-08
-1.68533e-08
-2.67514e-08
-2.4581e-08
-2.39878e-08
-2.16784e-08
6.86879e-09
6.70312e-09
5.79093e-07
6.65381e-07
6.94987e-07
4.07422e-07
3.65544e-07
7.82764e-07
7.7204e-07
4.07935e-07
-9.86318e-08
9.16778e-09
6.69445e-09
1.04233e-06
9.5973e-07
1.21813e-06
4.8072e-07
4.38516e-07
1.68193e-07
1.3161e-07
2.68648e-07
2.35719e-07
2.54058e-07
1.26517e-07
-4.50433e-08
-1.23358e-07
-1.35463e-07
-5.24781e-08
-7.77678e-08
-1.7394e-07
1.40576e-07
1.74646e-07
-1.89511e-09
-1.01196e-08
3.90212e-07
2.60931e-07
4.45224e-07
5.21855e-07
4.05475e-07
9.33718e-07
1.13774e-06
8.8296e-07
9.13878e-07
8.66358e-07
7.57846e-07
1.34984e-06
1.35553e-06
1.64573e-06
1.69379e-06
8.06814e-07
8.27532e-07
1.06818e-06
1.07215e-06
3.6922e-07
3.44307e-07
-2.83859e-08
-3.26745e-08
-7.97753e-09
-1.36473e-08
-3.19882e-08
-3.59937e-08
-6.00556e-08
-6.6156e-08
-1.12179e-07
-1.05491e-07
-2.86154e-08
1.04514e-07
9.89635e-08
1.20727e-07
1.24231e-07
7.04173e-08
7.60594e-08
1.95913e-07
1.89418e-07
-1.14176e-08
-1.273e-08
2.04426e-08
1.99609e-08
5.85011e-09
5.69627e-09
6.70739e-10
6.56291e-10
8.4161e-10
8.40206e-10
1.97067e-09
2.06862e-09
4.793e-10
5.18398e-10
9.32854e-10
9.37846e-10
-1.95554e-10
-2.71748e-10
6.13359e-10
6.21785e-10
5.82935e-10
5.94773e-10
5.24018e-10
5.3703e-10
5.46437e-10
5.67018e-10
-3.25568e-11
-1.36016e-10
8.16158e-10
8.38299e-10
7.50314e-10
7.66033e-10
7.05467e-10
7.06275e-10
1.23783e-09
1.28175e-09
1.39148e-09
1.45593e-09
2.06785e-09
2.14595e-09
1.81e-09
1.69072e-09
2.45162e-09
2.5622e-09
2.27948e-09
2.31213e-09
2.44492e-09
2.25703e-09
1.45894e-09
1.3632e-09
1.14442e-09
1.12753e-09
1.19482e-09
1.27597e-09
7.71672e-10
7.27052e-10
8.55483e-10
9.09469e-10
2.94999e-10
2.82357e-10
3.32307e-10
3.21615e-10
4.5545e-10
4.40928e-10
5.89549e-10
6.01677e-10
6.68455e-10
6.83835e-10
6.31878e-10
6.45051e-10
5.76343e-10
5.63512e-10
6.05277e-10
5.98166e-10
6.16997e-10
6.17616e-10
6.80665e-10
6.91289e-10
7.20157e-10
7.1582e-10
4.43773e-10
4.54182e-10
4.78164e-10
4.87264e-10
4.48932e-10
4.60443e-10
4.9566e-10
4.8201e-10
3.68383e-10
3.80082e-10
3.94642e-10
3.828e-10
2.45331e-10
2.59319e-10
2.64021e-10
2.51138e-10
3.32925e-10
2.95485e-10
4.31398e-10
4.28406e-10
3.25285e-10
3.00651e-10
2.91647e-10
2.74682e-10
2.51682e-10
2.71449e-10
3.57525e-10
3.83383e-10
2.87721e-10
2.80383e-10
1.50571e-10
1.39441e-10
2.20582e-10
2.35194e-10
1.67072e-10
1.81792e-10
1.89048e-10
1.97155e-10
1.53415e-10
1.52214e-10
2.56375e-10
2.51388e-10
1.55074e-10
1.36706e-10
1.89575e-10
1.97846e-10
9.2315e-11
1.77626e-10
1.50356e-10
1.47638e-10
6.32927e-11
6.35576e-11
8.69074e-11
8.84908e-11
2.01582e-10
2.07643e-10
2.15116e-10
2.13381e-10
2.03379e-10
2.07051e-10
1.97521e-10
1.96091e-10
1.79663e-10
1.76965e-10
1.6385e-10
1.56258e-10
1.78587e-10
1.75351e-10
1.88017e-10
1.92913e-10
2.86064e-10
2.56546e-10
2.43548e-10
2.38735e-10
2.27102e-10
2.21103e-10
2.44202e-10
2.391e-10
2.97169e-10
2.65698e-10
2.95338e-10
2.6486e-10
5.09646e-10
5.12868e-10
4.57569e-10
4.69837e-10
3.15588e-10
3.23975e-10
3.20766e-10
3.23752e-10
3.47376e-10
3.40441e-10
3.24902e-10
3.25294e-10
2.70759e-10
2.73737e-10
2.64788e-10
2.68321e-10
2.52359e-10
2.55124e-10
2.48996e-10
2.44605e-10
2.51801e-10
2.49095e-10
2.60677e-10
2.24494e-10
2.29529e-10
2.33033e-10
2.30395e-10
2.29753e-10
2.36286e-10
2.35044e-10
2.16999e-10
2.18793e-10
2.18554e-10
1.97507e-09
-7.57639e-10
-1.22445e-07
-1.28323e-07
5.10598e-07
4.46655e-07
-6.41656e-08
-9.3096e-08
1.60614e-07
1.0805e-07
2.28889e-08
8.44359e-08
1.74349e-07
2.08777e-07
2.17285e-07
2.17579e-07
5.40425e-08
1.03343e-07
2.2035e-07
2.77042e-07
-4.56617e-08
-4.13249e-08
1.82304e-08
2.1252e-08
4.55763e-08
6.5461e-08
1.24639e-07
1.10566e-07
3.02664e-07
3.41986e-07
6.35485e-07
6.36892e-07
6.49505e-07
6.78629e-07
9.8188e-07
1.08423e-06
6.33229e-07
5.95456e-07
1.0694e-06
1.01086e-06
2.14854e-07
1.49593e-07
2.93875e-08
5.89124e-09
-5.27069e-09
5.13922e-08
-3.06696e-08
-1.31351e-08
2.29013e-08