/*--------------------------------*- C++ -*----------------------------------*\
  =========                 |
  \\      /  F ield         | OpenFOAM: The Open Source CFD Toolbox
   \\    /   O peration     | Website:  https://openfoam.org
    \\  /    A nd           | Version:  7
     \\/     M anipulation  |
\*---------------------------------------------------------------------------*/
FoamFile
{
    version     2.0;
    format      ascii;
    class       volScalarField;
    location    "1980";
    object      T;
}
// * * * * * * * * * * * * * * * * * * * * * * * * * * * * * * * * * * * * * //

dimensions      [0 0 0 1 0 0 0];

internalField   nonuniform List<scalar> 
238806
(
0.0064698
0.00595455
0.0224403
0.0335506
0.0288833
0.00138246
0.00126454
0.00429916
0.00467461
0.0133526
0.0123088
0.0282129
0.00113822
0.00128295
0.0446845
0.0416379
0.0157074
0.0142624
0.00276464
0.00158513
0.00323475
0.00385025
0.0329677
0.0249395
0.0338052
0.0201965
0.0191596
0.0229486
0.0262041
0.0354697
0.00120746
0.00115415
0.010283
0.00912899
0.00112285
0.00111112
0.168983
0.172614
0.0118781
0.010669
0.0111121
0.0334435
0.00130727
0.00130362
0.00172668
0.00292588
0.017013
0.0151862
0.00803272
0.00689141
0.00154304
0.00128657
0.00114609
0.00131903
0.00843526
0.00854608
0.0141984
0.0143588
0.0127647
0.0161633
0.0146245
0.017932
0.0101972
0.00923748
0.00863135
0.00124423
0.00181805
0.00503501
0.00686838
0.00464122
0.00428018
0.00796663
0.00901824
0.00639036
0.007448
0.00179152
0.00222487
0.00117501
0.00116598
0.00557196
0.00502681
0.00792798
0.00678401
0.00622571
0.00461672
0.00430701
0.00406383
0.0235674
0.0255893
0.0228419
0.0226203
0.0132466
0.0122901
0.00633594
0.00908564
0.00124927
0.00123759
0.0110724
0.0129234
0.0362714
0.00302358
0.00181645
0.00310859
0.00144586
0.00113743
0.00469692
0.00529001
0.00560987
0.00648603
0.00852813
0.00962341
0.00403019
0.00328572
0.00126899
0.00148441
0.0010884
0.00107804
0.270885
0.374837
0.337529
0.044143
0.0561533
0.00479981
0.00618934
0.00138696
0.00126593
0.033948
0.046735
0.0217955
0.0286573
0.0114024
0.0163972
0.0194999
0.0355419
0.0185591
0.0142107
0.00443212
0.00447088
0.0345382
0.0374105
0.0307078
0.0365476
0.0096968
0.00961325
0.0140918
0.0022078
0.00371021
0.00282846
0.00165556
0.00213115
0.00327614
0.00158925
0.00234813
0.00674456
0.00753213
0.00473246
0.00543718
0.00745011
0.00845646
0.00307371
0.0036584
0.00171583
0.00210999
0.00108263
0.00144171
0.00102991
0.00101788
0.00361148
0.00382834
0.0766999
0.0788313
0.0074076
0.00641174
0.0252715
0.0311702
0.143643
0.00472395
0.00622901
0.0015059
0.00183424
0.0370053
0.0516698
0.0412943
0.0195787
0.019166
0.0175576
0.0160117
0.0241757
0.00640261
0.00641884
0.00146774
0.0014607
0.0109705
0.0164233
0.014219
0.0149241
0.0123475
0.0328112
0.0433969
0.0254968
0.0344247
0.00673126
0.00468364
0.00582077
0.00775771
0.00540165
0.00723947
0.00496915
0.00471144
0.00299535
0.00195607
0.0196883
0.0214662
0.00797463
0.00880391
0.00936906
0.0083943
0.0134003
0.0116611
0.00693459
0.00597331
0.00306228
0.00379784
0.00255806
0.00202523
0.00139432
0.00107673
0.00107636
0.00106305
0.0023873
0.00233407
0.00648487
0.00641308
0.0054745
0.00534841
0.00990932
0.0101249
0.00386486
0.00408528
0.0162007
0.0173572
0.061472
0.0702461
0.0116937
0.0116696
0.00488852
0.00613716
0.001983
0.00153755
0.00262208
0.00245221
0.00683972
0.00652677
0.0133095
0.0149743
0.0167865
0.0176225
0.0136495
0.0139453
0.00932476
0.00941676
0.00146833
0.00146939
0.00119961
0.00128422
0.005155
0.00540985
0.0117215
0.0106531
0.0162279
0.0177893
0.0107771
0.0254875
0.0224207
0.0307945
0.0264697
0.00478337
0.00679984
0.00267955
0.00438906
0.00340158
0.00199999
0.00323806
0.00352358
0.00095938
0.00102786
0.000953508
0.00119236
0.0106983
0.0101569
0.0159707
0.0175799
0.00762875
0.00842401
0.00927259
0.0102535
0.00949138
0.0106499
0.0108477
0.0123551
0.00698404
0.00793701
0.00146726
0.00163084
0.00431386
0.00512515
0.00124841
0.00141007
0.00189026
0.00236803
0.00110782
0.00115521
0.00104315
0.00109049
0.00155849
0.00148175
0.0238976
0.0237779
0.0026706
0.00261089
0.00349489
0.00358037
0.00513074
0.00568417
0.0062734
0.00632503
0.0097784
0.00955581
0.320347
0.00699816
0.00610654
0.0427448
0.0349887
0.0237544
0.024193
0.00203105
0.00211966
0.0309467
0.0311755
0.0112352
0.0142904
0.00138899
0.00127056
0.00190601
0.00152081
0.003305
0.0042737
0.0384571
0.0346862
0.0271334
0.0374076
0.0236982
0.0240835
0.0203926
0.022453
0.00140072
0.00138185
0.00166789
0.00131023
0.0013124
0.00116887
0.00126076
0.0103061
0.00788067
0.0155891
0.0105954
0.0316207
0.0277258
0.0400386
0.0102231
0.00950396
0.02079
0.0170016
0.0390235
0.0287859
0.0224819
0.0272352
0.00769146
0.0102602
0.0146498
0.00990173
0.00129807
0.00191488
0.00677953
0.00912197
0.0063
0.00845538
0.00517352
0.00542629
0.00589947
0.00626803
0.0011453
0.00143486
0.000992225
0.00152075
0.00104297
0.000975698
0.00181199
0.0027554
0.00335567
0.00308665
0.0193593
0.0179046
0.00429527
0.00372745
0.00731956
0.00808394
0.00879193
0.00970956
0.0111238
0.0123784
0.0138617
0.0154581
0.00656813
0.00746178
0.00166001
0.00147535
0.00406008
0.00481929
0.00144149
0.00125653
0.00134166
0.0014378
0.00119658
0.00118525
0.00105753
0.00110538
0.00165081
0.0104399
0.0103271
0.00240364
0.00235153
0.00273189
0.00280064
0.0030277
0.00296053
0.00742812
0.00749426
0.00926993
0.00908608
0.00603365
0.00617727
0.0271534
0.0329003
0.00719881
0.00703597
0.0174036
0.0153427
0.0157912
0.0103438
0.00958454
0.0544974
0.0559626
0.041334
0.0513644
0.00825444
0.00835143
0.00629509
0.0061896
0.0242757
0.0239706
0.178749
0.421668
0.0560066
0.0734865
0.0159302
0.0121893
0.00242766
0.00371788
0.00137524
0.00127295
0.00279075
0.00582875
0.00497851
0.00571073
0.0230132
0.0220307
0.0301307
0.0399175
0.0165535
0.0245045
0.0184389
0.00625922
0.00886291
0.00256884
0.00439339
0.00261508
0.00260893
0.00123061
0.00130871
0.0010974
0.00111047
0.00113769
0.00115343
0.00746019
0.00700761
0.00973082
0.00826137
0.0343166
0.0159231
0.0142909
0.0200105
0.039139
0.0384905
0.0314497
0.0397796
0.0209236
0.0199943
0.0089359
0.00962889
0.0091092
0.0129476
0.00482795
0.0067875
0.00308073
0.00307387
0.0031728
0.00508041
0.00404182
0.00243669
0.00441004
0.00424491
0.00377656
0.00358342
0.00191565
0.00199478
0.000967509
0.00103585
0.00257467
0.00396623
0.00099197
0.00105517
0.00115038
0.000954278
0.00217822
0.00150503
0.015708
0.0164465
0.0447964
0.0345163
0.00491111
0.0042733
0.00550159
0.00488429
0.00687226
0.00616226
0.0079227
0.00709305
0.00836056
0.00922925
0.010426
0.0115794
0.012819
0.0142723
0.00574579
0.00499589
0.00619949
0.00703237
0.00134874
0.00126123
0.00254353
0.00210036
0.00382588
0.00454234
0.00585161
0.004878
0.00124446
0.0013598
0.000974091
0.00101489
0.00230151
0.00208242
0.00190554
0.00176385
0.0011355
0.00114903
0.00141735
0.00136366
0.0828211
0.0847358
0.0392443
0.0370587
0.00268233
0.00262293
0.00368985
0.0039106
0.0035975
0.00351385
0.0155442
0.0156308
0.0148564
0.0178562
0.00515253
0.00520508
0.00612884
0.00598802
0.0485096
0.0494148
0.111246
0.113765
0.00984289
0.0096026
0.0120574
0.0112166
0.0222595
0.0254618
0.0171179
0.0248414
0.0128359
0.0117781
0.00844429
0.00948283
0.0135152
0.0117039
0.0332031
0.026375
0.00838009
0.00781115
0.0796837
0.0785057
0.0133014
0.0153275
0.0105206
0.0104661
0.272737
0.27189
0.131194
0.232724
0.428442
0.431724
0.0104953
0.0131582
0.00831329
0.00846994
0.00202435
0.00185222
0.00163278
0.00165427
0.00137499
0.00126539
0.00519374
0.00547743
0.00610549
0.00575985
0.0409595
0.0575401
0.0098149
0.00900737
0.0129641
0.0153144
0.0177917
0.0209262
0.0291719
0.00618951
0.00854738
0.0131833
0.0128068
0.00246882
0.00437539
0.00449939
0.00449726
0.00124636
0.00132151
0.00114955
0.00112975
0.00118429
0.00127249
0.00456203
0.00487734
0.00784433
0.00811663
0.0225909
0.0270608
0.0211977
0.0345309
0.0117764
0.010895
0.0185141
0.0198807
0.0173454
0.00866559
0.0079142
0.0152474
0.0179659
0.0447154
0.0310875
0.00728155
0.0068119
0.00993778
0.0146569
0.00187901
0.00127347
0.007282
0.00986555
0.00352349
0.00285073
0.00348382
0.00450171
0.00562321
0.00596983
0.00636485
0.00141755
0.0013976
0.00207912
0.00216716
0.0014082
0.000973417
0.00559588
0.00510637
0.00109666
0.000961723
0.000983965
0.00104945
0.003957
0.00364598
0.0111494
0.0117522
0.0153403
0.0145105
0.0277763
0.0332083
0.0171894
0.0192803
0.0066491
0.00587313
0.00468528
0.00407372
0.0057391
0.00509245
0.00592007
0.00659608
0.0083559
0.00748293
0.0098123
0.0108721
0.0119189
0.0132692
0.00609292
0.00528689
0.0016915
0.00148824
0.00293013
0.0034846
0.00267631
0.0033497
0.00458655
0.00546656
0.00165637
0.00201458
0.00108303
0.00114797
0.00158994
0.00134341
0.00177977
0.00107966
0.00109549
0.0011634
0.00120897
0.00123634
0.00128043
0.00115928
0.0011779
0.00493303
0.00510163
0.194722
0.178944
0.186191
0.186661
0.00443858
0.00404273
0.00241305
0.00247369
0.00283488
0.00276757
0.00307869
0.00301046
0.00866762
0.00871569
0.0156956
0.0184415
0.00437605
0.00438914
0.0112335
0.0110743
0.00716093
0.00702827
0.00579006
0.00568501
0.00575718
0.00589382
0.0317096
0.0311972
0.0412581
0.0402936
0.0512173
0.0521196
0.351585
0.35804
0.0385987
0.0397373
0.00986591
0.0100949
0.356778
0.345586
0.310854
0.0144839
0.0172456
0.010921
0.00971606
0.0119817
0.00107502
0.00107978
0.0147378
0.0157427
0.0137405
0.0124985
0.00679971
0.00619252
0.00880537
0.00790219
0.0216867
0.0234021
0.0217031
0.0211638
0.0013505
0.00139747
0.0174897
0.0178881
0.00886588
0.00829341
0.00961739
0.00982295
0.0407902
0.0507643
0.00258038
0.00258146
0.00654348
0.00641274
0.00854648
0.00849216
0.0104232
0.0103906
0.0309721
0.0308699
0.0313484
0.0376455
0.0366026
0.0384027
0.0386326
0.00985218
0.0106438
0.0118284
0.0152731
0.00138568
0.00136226
0.00128557
0.00378618
0.00244308
0.00165651
0.00333382
0.00225249
0.00129792
0.00138135
0.00576598
0.00455753
0.00712313
0.00755342
0.0212433
0.0277039
0.00813648
0.00761027
0.0179723
0.0148646
0.0201535
0.0268259
0.00861057
0.00616433
0.0161502
0.0236245
0.00130499
0.0012859
0.00260609
0.00258448
0.00121509
0.00129638
0.00111772
0.00111197
0.00859688
0.00667341
0.00655288
0.00607821
0.00563731
0.00588233
0.022469
0.018051
0.023145
0.0393725
0.0500778
0.0419708
0.0105177
0.00977203
0.0133764
0.0124589
0.0261044
0.0328094
0.0119973
0.0128998
0.0235732
0.0185197
0.0221987
0.0221434
0.00474708
0.00649068
0.00987303
0.0147365
0.00473835
0.00292702
0.00114745
0.00130901
0.00336839
0.00400637
0.00426413
0.00114943
0.00115124
0.00100936
0.000944594
0.00360597
0.00233739
0.000999871
0.00106047
0.00253835
0.00168956
0.0150564
0.0143863
0.0173166
0.018366
0.0295069
0.0245424
0.0166054
0.015208
0.0199408
0.00516057
0.00449238
0.00358026
0.004128
0.00718336
0.00643576
0.00791595
0.00883477
0.0114393
0.0101285
0.0013493
0.00125384
0.00268803
0.00318558
0.0020307
0.00243589
0.00227795
0.00280916
0.00356775
0.00285655
0.00160938
0.00193501
0.0010073
0.00105067
0.00114559
0.00106559
0.00100755
0.000967442
0.00183218
0.00245904
0.00110993
0.00117865
0.00122236
0.00106437
0.00106959
0.00107025
0.00106519
0.0252834
0.0315075
0.19661
0.180602
0.0307914
0.0246097
0.0351828
0.024046
0.00463408
0.00455993
0.00251426
0.00245467
0.00285139
0.00278564
0.00346099
0.00353709
0.00343187
0.0034111
0.0229084
0.0180223
0.0160283
0.018807
0.00410114
0.00410788
0.0110887
0.0113013
0.0174507
0.0204904
0.00759163
0.00774797
0.00782371
0.00768079
0.00592716
0.00581909
0.00604926
0.00617389
0.00548259
0.00537193
0.00585078
0.0057165
0.00913814
0.0103205
0.0337165
0.0277965
0.0679631
0.0667365
0.31416
0.320394
0.0284725
0.0278541
0.0226718
0.022973
0.0101113
0.00986281
0.0135829
0.0128814
0.0115071
0.011834
0.00630152
0.00647996
0.00536151
0.0185379
0.0208477
0.0189481
0.0225861
0.0250681
0.0237858
0.00197334
0.00202765
0.00545939
0.00513532
0.0144408
0.0131931
0.0114655
0.0105806
0.00914783
0.0103811
0.033992
0.0324814
0.0245787
0.030567
0.00173698
0.00177269
0.0014733
0.00144637
0.0666704
0.0687105
0.00741438
0.00744712
0.00846136
0.00903367
0.00807808
0.00816126
0.0362357
0.0310184
0.0220663
0.0268804
0.00147242
0.00150722
0.00581573
0.00505233
0.00610102
0.00553121
0.00228801
0.00233595
0.006791
0.00690167
0.0117315
0.0117813
0.0201747
0.0201096
0.265888
0.256725
0.0240027
0.0239444
0.0419313
0.0419177
0.00806256
0.00775832
0.00131104
0.00131414
0.00234846
0.00352869
0.00157953
0.00160553
0.0013789
0.0012898
0.00810451
0.00866343
0.0046597
0.00359003
0.030321
0.023932
0.0286405
0.0235398
0.0181471
0.00997838
0.00924104
0.0132818
0.011908
0.0305317
0.0231833
0.0181907
0.0224687
0.01585
0.024333
0.0126178
0.00131515
0.00131832
0.00273034
0.00448292
0.00364905
0.00335116
0.00111445
0.00113958
0.00108581
0.00107605
0.00853116
0.0113164
0.0132223
0.0108307
0.0119292
0.0154581
0.0169539
0.0188334
0.0154286
0.0200648
0.0182022
0.0214519
0.00903517
0.00791921
0.0083893
0.00935448
0.00867504
0.0118832
0.0110101
0.020878
0.0249532
0.0158518
0.0197124
0.0263307
0.00198299
0.00135291
0.00668453
0.00481746
0.00107822
0.000967446
0.00135631
0.00115115
0.00162138
0.00221702
0.00775968
0.00830644
0.00454337
0.00485882
0.00124693
0.000955558
0.000951691
0.00101904
0.000957249
0.00111943
0.0126718
0.0121148
0.0160012
0.0149132
0.0167702
0.0158391
0.0416044
0.059201
0.0147291
0.0137053
0.0205326
0.0234108
0.00558305
0.00630838
0.00448061
0.0038919
0.00996774
0.00891734
0.00129163
0.00135897
0.00186805
0.00218745
0.00266729
0.002182
0.00361032
0.00429059
0.00137077
0.00124289
0.00157242
0.00186867
0.00103941
0.000998445
0.00107075
0.00114475
0.000982081
0.00102238
0.00192259
0.00264246
0.00113771
0.0010899
0.00119494
0.00123717
0.00120323
0.00106313
0.0307799
0.0250269
0.0296865
0.0248226
0.0244064
0.0242188
0.023909
0.0242897
0.00864305
0.00763231
0.00333237
0.00304929
0.00239644
0.00235383
0.00253577
0.00259946
0.00270185
0.00266482
0.0031698
0.00309982
0.00335561
0.00328009
0.0120251
0.0120458
0.0179285
0.0228613
0.00658971
0.00671984
0.00404316
0.00403581
0.0043339
0.00433346
0.00438896
0.0217604
0.0214348
0.0211047
0.0207793
0.0147596
0.00685553
0.00698709
0.00875951
0.00860383
0.00689933
0.00624483
0.00508694
0.00511239
0.00523546
0.00536193
0.00699119
0.00686071
0.00558666
0.00548118
0.00578663
0.00565575
0.0248788
0.0245529
0.00906066
0.0081404
0.0205402
0.0210752
0.0454117
0.0460161
0.0655119
0.0503146
0.303698
0.307245
0.23267
0.236878
0.0634002
0.0644672
0.0195195
0.0197675
0.00711784
0.00759676
0.0100458
0.00935517
0.0135462
0.0142934
0.0114999
0.0123634
0.0139616
0.0135645
0.259763
0.367401
0.00931368
0.00776808
0.0193361
0.0164589
0.0142294
0.0136145
0.0226612
0.0233285
0.018615
0.0153128
0.0200497
0.00130766
0.00122315
0.00275645
0.00259114
0.0166525
0.0174951
0.0153459
0.0112496
0.0123455
0.0118501
0.0132594
0.031685
0.0228496
0.0192237
0.0233723
0.0258122
0.036072
0.0363531
0.0102378
0.00860097
0.00142631
0.00138145
0.00953117
0.00897584
0.0150687
0.0156225
0.010626
0.0107552
0.023558
0.0211346
0.00863416
0.00920688
0.035643
0.0300763
0.0274116
0.0225165
0.00136278
0.00134678
0.00161488
0.00165829
0.00503917
0.00580054
0.216134
0.214682
0.172253
0.221918
0.0178435
0.0210818
0.00702639
0.00716685
0.00935811
0.00932366
0.0202119
0.0203168
0.0176016
0.0175051
0.27118
0.269101
0.029609
0.0301874
0.00645888
0.00608635
0.00978237
0.0123179
0.00324076
0.0030241
0.00162289
0.00154761
0.00215653
0.00314488
0.00137681
0.00128143
0.00917911
0.00724851
0.00492341
0.00382767
0.0162928
0.0143495
0.0162159
0.0111138
0.0127633
0.0115304
0.00869171
0.0115569
0.0104766
0.0162682
0.0152178
0.0124865
0.0123508
0.00146346
0.0014651
0.00113001
0.00117148
0.00112456
0.00111118
0.00102396
0.00101107
0.00373588
0.00416643
0.00994009
0.00919666
0.0140697
0.0151284
0.0128709
0.0124728
0.0114466
0.0125887
0.0131411
0.0155591
0.0131051
0.0140079
0.0236486
0.0322486
0.038589
0.0313946
0.0377234
0.00835839
0.00691641
0.00754588
0.011416
0.0101261
0.0149247
0.0140577
0.0157762
0.0212017
0.0182726
0.0283127
0.0214471
0.0169045
0.0209035
0.00194788
0.0013243
0.00104331
0.00102869
0.000960724
0.000988237
0.00110856
0.000933871
0.00116722
0.00137726
0.00115173
0.0024422
0.00171163
0.00672039
0.00723593
0.00302602
0.00284415
0.000961868
0.00131825
0.0116152
0.0111016
0.0138054
0.0150723
0.0140381
0.0133052
0.0224179
0.0193833
0.034939
0.0329229
0.042676
0.0603083
0.024196
0.0298355
0.0272745
0.0184254
0.00532414
0.00600635
0.00135308
0.00127976
0.00225835
0.00191587
0.00280148
0.00332688
0.00296885
0.00238964
0.00341389
0.00406095
0.00138705
0.00124402
0.00109099
0.00115221
0.00107659
0.00114558
0.00203709
0.00284853
0.00112112
0.00107312
0.00222815
0.00218287
0.0174729
0.0227226
0.0192353
0.0193642
0.125096
0.131969
0.14889
0.142515
0.059551
0.0536298
0.00609021
0.00684493
0.00440556
0.00448453
0.00384807
0.0042349
0.00314434
0.00307116
0.00253852
0.00248052
0.00287047
0.0028063
0.00263775
0.00257524
0.00272147
0.00331169
0.00323964
0.0032407
0.00287112
0.0029433
0.00324857
0.003329
0.211435
0.213507
0.00663575
0.00655915
0.00679283
0.00593943
0.172055
0.184881
0.0100517
0.00886853
0.00633562
0.00621177
0.0050067
0.00539233
0.00423501
0.00423209
0.00464296
0.00465125
0.0136555
0.0139519
0.0175489
0.0145809
0.010899
0.00966408
0.00812376
0.00829087
0.006362
0.00648132
0.00475027
0.00476218
0.00532819
0.00527294
0.00635583
0.00647773
0.00559684
0.00569669
0.00549129
0.00562309
0.0061972
0.00605685
0.0116841
0.01185
0.0153893
0.0150897
0.00850369
0.00948892
0.0101865
0.0110024
0.0112391
0.0179
0.0174882
0.0567405
0.0551383
0.108549
0.114907
0.282929
0.277793
0.29212
0.287693
0.34435
0.340623
0.109985
0.230565
0.0451081
0.0443108
0.0474122
0.0487595
0.00728954
0.00712519
0.0100297
0.00981298
0.0119461
0.0125953
0.00930569
0.00949981
0.0120749
0.0129865
0.0132104
0.0139337
0.0174925
0.0164195
0.0220065
0.0202311
0.362172
0.353823
0.0204613
0.0237229
0.0157537
0.0146607
0.0135795
0.016229
0.0143227
0.0197164
0.0177833
0.021094
0.0265014
0.0124682
0.00638662
0.00605831
0.00229157
0.00305548
0.00285577
0.00174139
0.0048382
0.00364765
0.013923
0.0152202
0.00668083
0.00592666
0.0108511
0.00979074
0.0140394
0.0131929
0.011316
0.0186283
0.0163751
0.0183967
0.0302478
0.0174091
0.0149273
0.0177244
0.144169
0.126984
0.00201148
0.00206998
0.00817967
0.00805222
0.00712563
0.00721103
0.0233983
0.0229207
0.0158404
0.016415
0.0112947
0.0110216
0.0698922
0.149908
0.021523
0.0239012
0.00790585
0.00797589
0.0090049
0.00916032
0.0282439
0.0261021
0.0471373
0.047902
0.0239673
0.0290917
0.0209331
0.0214599
0.00132297
0.00133316
0.00171084
0.00177136
0.00341329
0.00338824
0.00260738
0.00264531
0.198827
0.205415
0.214551
0.0208295
0.0176839
0.00247575
0.00244014
0.00888125
0.00877697
0.00844699
0.00840987
0.0150776
0.0150913
0.27193
0.272569
0.0147863
0.0145059
0.0237305
0.0237007
0.0487485
0.0545574
0.0697275
0.100812
0.00517284
0.00483259
0.00902493
0.0114983
0.00219987
0.00341329
0.00145416
0.00140397
0.00206606
0.00296336
0.00137743
0.00126154
0.00685555
0.00646994
0.0471176
0.0660797
0.0200055
0.0106794
0.00870752
0.00619719
0.00115524
0.00112093
0.00100883
0.00559588
0.00509783
0.0140669
0.0124394
0.0243713
0.0301942
0.0319641
0.0108185
0.00939372
0.0109396
0.0168347
0.0290289
0.0331433
0.0460615
0.0509522
0.0638943
0.00892056
0.00732996
0.0124454
0.0137057
0.0145867
0.0129611
0.0171497
0.0134631
0.0126709
0.0260862
0.0151553
0.0044646
0.00312213
0.00394117
0.00856044
0.0117221
0.00095226
0.00105606
0.000932622
0.00145368
0.000998972
0.00112474
0.00110664
0.000932887
0.00268739
0.00184384
0.00133429
0.00114969
0.00561004
0.00527158
0.0120176
0.0113166
0.00968104
0.00926102
0.0106469
0.0116208
0.0126672
0.0163438
0.0175939
0.0213939
0.0240179
0.0913965
0.0746719
0.0269325
0.0141142
0.0156624
0.0219856
0.00181243
0.00154299
0.00135025
0.00126993
0.00259016
0.00306142
0.00314928
0.0025217
0.00110047
0.00115833
0.00137961
0.00107759
0.0135592
0.013719
0.00178287
0.00173519
0.00643646
0.00629347
0.00299757
0.00293501
0.0119813
0.0121572
0.186299
0.144708
0.102009
0.11017
0.0335113
0.0320738
0.136587
0.0194818
0.0191849
0.0065847
0.0058538
0.00756195
0.00770784
0.0116224
0.011419
0.00518127
0.00510632
0.00311515
0.00340721
0.002477
0.00251052
0.00233934
0.00228325
0.00242385
0.002732
0.00274354
0.00265891
0.00259795
0.00351476
0.00343969
0.00309618
0.00314805
0.0035937
0.00351463
0.00335157
0.00327291
0.0289679
0.0292859
0.00756433
0.0076389
0.0104982
0.0106145
0.00781074
0.0176768
0.022761
0.0134454
0.0137108
0.0054517
0.00603187
0.00725456
0.00816328
0.00395026
0.0039408
0.00428171
0.00417405
0.00431553
0.00421927
0.00453785
0.00454294
0.00461526
0.0229855
0.0226823
0.018266
0.0187113
0.00983034
0.00999486
0.00976616
0.00950996
0.00797178
0.00891942
0.00481466
0.00472056
0.00497196
0.00499254
0.00504046
0.00625284
0.00637818
0.00612365
0.00601377
0.00589966
0.00558474
0.00545511
0.00607775
0.00594696
0.00592008
0.0205196
0.0252049
0.0181487
0.0177995
0.0117812
0.0133728
0.0106831
0.0104178
0.0297198
0.0302147
0.193291
0.286817
0.053362
0.0695818
0.0659119
0.0486989
0.0478898
0.0467866
0.0476332
0.0642729
0.063004
0.273164
0.146005
0.330702
0.328221
0.228031
0.225729
0.348322
0.311029
0.0611718
0.0615988
0.0532153
0.0522879
0.0226307
0.0231356
0.00737954
0.00753774
0.0073348
0.00746537
0.0111139
0.0106616
0.0109652
0.010682
0.00769839
0.00749843
0.00961443
0.0103342
0.00976168
0.00938184
0.0399949
0.0393942
0.013888
0.0146624
0.0112472
0.0115737
0.0151953
0.0140486
0.0321258
0.0315132
0.325831
0.18475
0.257777
0.00593862
0.00580589
0.00128536
0.00127417
0.0107181
0.00953947
0.00994148
0.0126568
0.025889
0.0318603
0.0128401
0.0257592
0.0250511
0.0250923
0.00191173
0.00196401
0.00121886
0.00133152
0.00161815
0.00155757
0.00105653
0.00106163
0.00163876
0.00149834
0.00563311
0.00422406
0.0182317
0.0247694
0.00871685
0.0079343
0.00641153
0.00574777
0.0154344
0.0136569
0.0122026
0.0101463
0.0115963
0.00975498
0.0121011
0.0129204
0.0185834
0.0152982
0.0202073
0.0010961
0.00117317
0.000941061
0.0211983
0.0145278
0.0123716
0.00126231
0.00130544
0.00576022
0.00496425
0.00389501
0.00434589
0.0202181
0.0246479
0.0135207
0.0131918
0.0189513
0.0185586
0.0177609
0.0183943
0.0128058
0.0130958
0.0108879
0.0111565
0.00833387
0.00747765
0.0219137
0.0242553
0.0153248
0.0185704
0.00773789
0.00779525
0.0105556
0.0119824
0.00940845
0.00959655
0.0155022
0.016249
0.0466652
0.0468688
0.284023
0.284891
0.0389465
0.0505749
0.0401788
0.0513666
0.0571082
0.0595821
0.0270962
0.0282602
0.00131863
0.00131798
0.00195288
0.00188531
0.0029696
0.00299017
0.00282378
0.00278701
0.00753138
0.00682409
0.0104189
0.0118578
0.0152356
0.0132555
0.00188457
0.00191186
0.0102968
0.0106769
0.00765369
0.00761737
0.00940282
0.00945699
0.017339
0.0173884
0.273046
0.27287
0.0184687
0.0187952
0.0155973
0.0154662
0.0238525
0.0237861
0.0576805
0.0608272
0.00637434
0.00617122
0.00606669
0.00490994
0.0056391
0.00832446
0.00773282
0.00233723
0.00355743
0.00155686
0.0345959
0.00609458
0.00645568
0.00106497
0.00114732
0.00108017
0.00724932
0.00934484
0.00619321
0.00666169
0.013606
0.0190295
0.029591
0.0138179
0.0250028
0.0613913
0.0846229
0.019291
0.0236491
0.0486381
0.00666026
0.00628888
0.0161212
0.0180779
0.0150787
0.0135508
0.016983
0.0188219
0.0269316
0.0216976
0.0220347
0.00448036
0.0031257
0.00809644
0.0109015
0.000958707
0.00106589
0.00138425
0.000941575
0.0010195
0.000938764
0.000977393
0.00109234
0.00177618
0.00254425
0.0121957
0.0128549
0.00888736
0.00973798
0.0132006
0.0138079
0.0174207
0.0192388
0.0498646
0.0363388
0.0128108
0.00151983
0.0017652
0.00135287
0.00124821
0.00234117
0.00196989
0.00102991
0.000991292
0.0116952
0.0118425
0.00157902
0.00164959
0.00189688
0.00186676
0.00467558
0.00519932
0.0215907
0.0252888
0.00350732
0.00344928
0.0228301
0.0228057
0.00517057
0.00515313
0.0154654
0.0155563
0.0278929
0.0252733
0.120476
0.115576
0.185205
0.117817
0.130949
0.125625
0.0212633
0.0213339
0.00645841
0.00573899
0.0067134
0.00597085
0.0127811
0.0125293
0.00650737
0.0064169
0.00580278
0.00572229
0.00375401
0.00367647
0.00274321
0.00282037
0.00283457
0.00266663
0.00244138
0.00245647
0.00223883
0.00229581
0.00279504
0.00285963
0.00338464
0.00359096
0.00299358
0.00292581
0.00351127
0.00359148
0.00335643
0.00327951
0.148297
0.152009
0.0315367
0.0318231
0.0087778
0.00885141
0.00687275
0.0060066
0.00660728
0.00576738
0.0227873
0.0177554
0.0205569
0.0211577
0.013808
0.0162368
0.00591418
0.00534321
0.00785659
0.00697892
0.00385487
0.00375195
0.0051052
0.00549789
0.00435199
0.00446086
0.00429374
0.00428294
0.00412481
0.00413805
0.00458459
0.00456629
0.00443485
0.00443703
0.00905211
0.00886114
0.0199597
0.0203509
0.0152756
0.0156849
0.0195199
0.0166821
0.00660265
0.00672755
0.00847346
0.00866826
0.00637344
0.00625953
0.00492431
0.00483017
0.0048598
0.00487588
0.00595787
0.00608486
0.00661052
0.0064904
0.00569522
0.00557335
0.00552679
0.00539906
0.00581951
0.0058563
0.0138492
0.0140393
0.0192096
0.019336
0.0156937
0.0184847
0.012411
0.0139465
0.00926377
0.00831592
0.0109131
0.0111568
0.015307
0.0156643
0.0276962
0.0267607
0.0207668
0.0202822
0.0346125
0.0284889
0.0503972
0.0495229
0.313442
0.30973
0.0617051
0.0602379
0.143418
0.141009
0.148878
0.152082
0.0596003
0.0613666
0.108467
0.107076
0.042721
0.041893
0.0366525
0.0359723
0.0270023
0.0278915
0.0214392
0.0222576
0.0079885
0.00874868
0.00744645
0.00729638
0.00698177
0.00684763
0.0102667
0.0100289
0.0101558
0.0103594
0.00817532
0.00794811
0.00987484
0.0106177
0.00872463
0.00851729
0.010263
0.0100101
0.00933934
0.00970086
0.0126733
0.0117866
0.0123379
0.0118777
0.0144605
0.0156176
0.0167527
0.0163218
0.0576442
0.0969043
0.0529389
0.0439815
0.185034
0.00569019
0.00636881
0.0461393
0.0540304
0.00431136
0.00400925
0.0289233
0.0349087
0.0069248
0.00815337
0.0120065
0.0110646
0.0115224
0.0124936
0.0125101
0.0108417
0.0194905
0.0167675
0.0240457
0.0248152
0.0127011
0.0121265
0.00196286
0.00166653
0.00477963
0.00404361
0.00160167
0.00152512
0.0012114
0.00120767
0.00106575
0.00120703
0.00295388
0.00183734
0.00114083
0.00109332
0.00912068
0.0133937
0.00412991
0.00586761
0.0187132
0.0244684
0.0070574
0.00737969
0.00681685
0.0055773
0.0119185
0.0106728
0.0101227
0.00856949
0.0081721
0.00875673
0.00977242
0.011029
0.0242647
0.0241438
0.0312982
0.0353334
0.0407925
0.0199063
0.0252223
0.00100665
0.000922165
0.0204206
0.0208117
0.0116583
0.0121802
0.00170559
0.00196445
0.00147438
0.0014328
0.00162685
0.0016047
0.0796019
0.0875979
0.0021691
0.0024711
0.0198505
0.0195036
0.00792638
0.00772827
0.0099686
0.00974729
0.0409169
0.0421918
0.0414683
0.0406113
0.0147876
0.0155486
0.0133924
0.0136961
0.00811457
0.0079319
0.0292775
0.0291568
0.0140907
0.0170372
0.00881147
0.00791767
0.0369243
0.03431
0.0260979
0.0255332
0.0079679
0.00853849
0.00757417
0.00761876
0.0170673
0.0207636
0.0117763
0.0103684
0.0092042
0.00937554
0.0112361
0.0115872
0.033735
0.028183
0.0806937
0.0822819
0.0112157
0.0111621
0.0382529
0.0497239
0.0396091
0.0512061
0.0359023
0.0151794
0.0155142
0.0263548
0.0274733
0.00144451
0.0014243
0.00439239
0.00382456
0.0028657
0.00286644
0.00231082
0.00227182
0.00556505
0.00562295
0.00621453
0.00562297
0.0061629
0.00557573
0.00823423
0.00923727
0.0155848
0.0134437
0.13807
0.242182
0.0248042
0.0323395
0.00186229
0.00189109
0.0113302
0.0117228
0.00593727
0.00587179
0.0107681
0.010884
0.00868753
0.00861101
0.0132193
0.0132073
0.0311513
0.0314403
0.0306536
0.0306716
0.0621515
0.0641507
0.0161359
0.0163822
0.0178565
0.0177176
0.0310699
0.0311269
0.136594
0.111256
0.0511192
0.00690661
0.00741728
0.00516631
0.00491568
0.00308327
0.0028438
0.00119988
0.00118476
0.00112581
0.0148605
0.0123767
0.0118517
0.00896697
0.00754278
0.0181932
0.112986
0.0936784
0.0451377
0.038373
0.0360682
0.0441674
0.0096087
0.0102211
0.0116899
0.0108621
0.0246643
0.0141701
0.00143644
0.00220892
0.0056429
0.00522468
0.00627124
0.00605694
0.00123706
0.000937252
0.000949996
0.00104863
0.000934659
0.00105756
0.0124353
0.0132118
0.0101512
0.0106188
0.0216885
0.0260509
0.00150222
0.00172568
0.0106734
0.0105299
0.00333872
0.00345075
0.00188907
0.00186033
0.00480385
0.00473565
0.00217396
0.0021279
0.00459413
0.00495705
0.218621
0.184912
0.0896568
0.0921965
0.00547935
0.00557121
0.00339437
0.00319885
0.00334122
0.0174167
0.0227241
0.0151601
0.0152298
0.00874779
0.00873782
0.0152862
0.0130757
0.0174647
0.0241493
0.0271939
0.0255067
0.0287234
0.0250443
0.183628
0.181323
0.0188466
0.0189408
0.0122279
0.0120509
0.00633481
0.00562656
0.00741919
0.0110281
0.0112462
0.0108452
0.011052
0.00731262
0.00720967
0.00600843
0.00594878
0.00327139
0.0036367
0.00416111
0.00408373
0.0028724
0.00295021
0.00251355
0.00246298
0.00256561
0.00251029
0.00236823
0.00231358
0.00385072
0.00407949
0.00374774
0.00366851
0.00329081
0.00321877
0.00321344
0.00314186
0.00298773
0.00291875
0.00309265
0.00316977
0.00336106
0.0032865
0.00343495
0.134801
0.132346
0.0714093
0.0706758
0.0296074
0.0299376
0.00962345
0.0109562
0.0105646
0.00696736
0.00608016
0.00666395
0.00582145
0.0112055
0.0130388
0.0200624
0.0202033
0.0254536
0.0264697
0.0194732
0.0181473
0.0121709
0.0124158
0.00903942
0.0102469
0.00739614
0.00832109
0.00711547
0.00800849
0.00377012
0.00375677
0.00520446
0.00560422
0.00426241
0.00437073
0.00419997
0.00419127
0.00413286
0.00457537
0.0044816
0.00451353
0.00441363
0.00870738
0.0088775
0.0167772
0.0171197
0.0118964
0.012141
0.0103283
0.010725
0.0169771
0.0198578
0.0127307
0.0125635
0.0074409
0.0072971
0.00614733
0.00603714
0.00490871
0.00501811
0.00505909
0.0051166
0.00504033
0.00571411
0.00583429
0.00726501
0.00712599
0.00623758
0.00673393
0.0054532
0.00533373
0.00598862
0.00612434
0.0254502
0.0207362
0.0161961
0.0161956
0.0242305
0.0239134
0.0128288
0.0140406
0.0143835
0.0110029
0.0131041
0.0115283
0.00858701
0.00879715
0.00872899
0.00854475
0.0115911
0.0113167
0.0137923
0.0126261
0.0175366
0.0179797
0.0228214
0.0231143
0.0214007
0.0172696
0.0168913
0.0233604
0.0228388
0.0356015
0.0292441
0.058537
0.0604909
0.0585583
0.0561867
0.139034
0.136908
0.269191
0.265811
0.0744102
0.0733121
0.167192
0.0756474
0.0207583
0.0202988
0.0345917
0.0338519
0.0513899
0.0624129
0.0559387
0.0575392
0.0319321
0.0329226
0.023551
0.0243831
0.0202785
0.017198
0.00757305
0.00774106
0.0058901
0.0063962
0.0104031
0.0108387
0.00947494
0.0097185
0.0103653