/*--------------------------------*- C++ -*----------------------------------*\
  =========                 |
  \\      /  F ield         | OpenFOAM: The Open Source CFD Toolbox
   \\    /   O peration     | Website:  https://openfoam.org
    \\  /    A nd           | Version:  7
     \\/     M anipulation  |
\*---------------------------------------------------------------------------*/
FoamFile
{
    version     2.0;
    format      ascii;
    class       volScalarField;
    location    "2340";
    object      T;
}
// * * * * * * * * * * * * * * * * * * * * * * * * * * * * * * * * * * * * * //

dimensions      [0 0 0 1 0 0 0];

internalField   nonuniform List<scalar> 
238806
(
0.000511583
0.000479174
0.0011374
0.00162575
0.00142158
-4.46927e-05
-0.000106818
0.000356621
0.000386633
0.000899312
0.000875511
0.0014101
-5.14608e-05
-6.43825e-06
0.00181864
0.00174007
0.000978598
0.000932638
0.000277834
6.71111e-05
0.000313989
0.000390972
0.00149782
0.00122339
0.00153662
0.00107984
0.00106103
0.00117178
0.00141963
0.00172656
-4.81767e-05
-7.20438e-05
0.000879831
0.00082541
-0.00013543
-0.000135202
0.00681972
0.00692124
0.000865012
0.0008314
0.000847171
0.00159032
-9.1421e-05
-9.22743e-05
9.70559e-05
0.000298884
0.00111665
0.00105513
0.000762085
0.000684126
3.27701e-05
-4.75038e-05
-4.32881e-05
4.77228e-06
0.000104318
2.73264e-05
0.000920534
0.000914713
0.000887411
0.000967285
0.000932674
0.00104859
0.000861583
0.000821059
0.000791792
-3.45073e-05
0.000115117
0.000414189
0.000536131
0.000383236
0.000354056
0.000756165
0.000817705
0.000645424
0.000722835
8.33833e-05
0.000170958
-0.000122765
-0.000121538
0.000357136
0.000287069
0.000715719
0.000651904
0.000593543
0.000452736
0.000419565
0.000393838
0.00118752
0.00125533
0.00117299
0.0011643
0.000915975
0.000882823
0.000603392
0.000758519
-0.000126588
-0.000126461
0.000913558
0.000977088
0.00181921
0.000311196
0.000114195
0.000252833
1.92319e-05
-8.44166e-05
0.000476792
0.00053528
0.000577837
0.000650753
0.000791389
0.000849287
0.000420096
0.000328908
-5.74413e-05
1.44783e-05
-8.84274e-05
-8.30879e-05
0.0148172
0.0242927
0.0208216
0.00164787
0.00194481
0.000469594
0.000590155
-3.96014e-05
-0.000103174
0.00151436
0.00183441
0.00114235
0.00137481
0.000856297
0.000980172
0.00107146
0.00165314
0.0010371
0.000930223
0.000435275
0.000439332
0.00152954
0.00174574
0.00153685
0.00176558
0.000853856
0.00085933
0.00102967
0.000162073
0.000307742
0.000225328
9.16918e-05
0.000148817
0.000267157
7.41384e-05
0.000171149
0.000662443
0.000718763
0.000489751
0.000558336
0.00072107
0.000785088
0.000290669
0.000366407
6.4554e-05
0.00014827
-2.79246e-05
4.85526e-05
-9.96958e-05
-9.62509e-05
8.11109e-05
0.000135409
0.00117232
0.00118925
0.000687938
0.00062759
-0.0121471
-0.00800352
0.00991717
0.000462754
0.000593429
1.62418e-06
9.06221e-05
0.00157948
0.00193761
0.00186047
0.00107187
0.00105151
0.00102378
0.000952103
0.00126926
0.00060823
0.000609589
3.12503e-05
3.02132e-05
0.000904607
0.00111673
0.00102142
0.00103717
0.000957691
0.00165038
0.00202709
0.00140156
0.00172238
0.000686107
0.000499342
0.000470552
0.000585554
0.000441112
0.000557234
0.000525107
0.000498336
0.000240039
0.000126809
0.00119033
0.00124357
0.000746404
0.000796603
0.000833495
0.000779255
0.000996068
0.000936049
0.000685619
0.000610493
0.000298498
0.000391898
0.000228597
0.000134287
3.93916e-05
-3.18105e-05
-0.00012633
-0.000125306
-0.000135956
-0.000137034
0.00036571
0.000366798
-7.45634e-05
-7.47387e-05
0.000265242
0.000266979
0.000418928
0.000441064
0.000987402
0.00103589
0.00198595
0.00210991
0.000832643
0.000830338
0.000477377
0.000586378
0.000122933
1.8937e-05
0.000220889
0.000195584
0.000626848
0.000605107
0.000910264
0.000958083
0.00101022
0.00104577
0.00092901
0.000943125
0.000769472
0.000774472
2.92887e-05
3.06935e-05
-0.00011697
-0.000126869
0.000548575
0.000572009
0.000940605
0.000891613
0.00108989
0.00113591
0.00090033
0.001396
0.00126058
0.00165631
0.00144502
0.000509642
0.000690747
0.000211951
0.000364887
0.000280156
0.000137614
0.000329942
0.000366535
-0.000118234
-0.000131052
-7.32106e-05
6.89936e-06
0.000892811
0.000867701
0.00108082
0.00113257
0.000722147
0.000772804
0.000826232
0.000874077
0.000841585
0.00089434
0.00090364
0.000959641
0.000687068
0.000752047
-3.17084e-05
1.80419e-05
0.000450027
0.000533708
-7.3238e-05
-1.32239e-05
0.000105925
0.000197041
-0.000115682
-0.000132376
-0.000103031
-0.000127447
5.76495e-05
4.30579e-05
0.00109652
0.00106427
-0.000128849
-0.000130432
-0.000162639
-0.000162938
0.000292495
0.000362877
-0.000144635
-0.000168438
0.000162048
0.000160905
0.0190627
0.00066421
0.000606213
0.00166791
0.00149087
0.00101931
0.0010308
0.000156881
0.000173383
0.00164859
0.0018705
0.000861962
0.000926997
-3.61971e-05
-9.81393e-05
0.000106893
1.02989e-05
0.000306754
0.000413112
0.00166462
0.00159243
0.00130171
0.00167325
0.00124369
0.00125182
0.00108381
0.00119318
-1.15539e-05
-2.17332e-05
6.90269e-05
-9.13599e-05
-9.20434e-05
-0.000113444
-0.000126688
0.000873132
0.000751825
0.00107082
0.000888136
0.0015868
0.00144256
0.00180712
0.000890775
0.000854812
0.00124054
0.00112722
0.00197501
0.00151417
0.00131305
0.00145666
0.000749688
0.000887213
0.00105871
0.000873959
-1.79708e-05
0.000132922
0.000532049
0.000649915
0.000502234
0.000619138
0.000541712
0.00056631
0.000609316
0.000640308
-8.35171e-05
1.5149e-05
-3.83253e-05
7.10136e-05
-0.000130911
-0.000122263
0.00010741
0.000215714
0.000272704
0.000246761
0.00118153
0.00113759
0.00043561
0.000369966
0.000699315
0.000750179
0.000798709
0.000847344
0.000912878
0.00096
0.00101088
0.00106546
0.000654705
0.000719465
2.96229e-05
-2.34677e-05
0.00042051
0.000502244
-6.26817e-07
-6.5977e-05
2.23899e-05
4.18703e-05
-0.0001244
-0.000123706
-0.000106279
-0.000128616
7.35582e-05
0.000786455
0.000782926
-0.000119084
-0.000120756
-0.000158041
-0.000158691
-6.50504e-05
-6.76538e-05
0.000459521
0.000458129
0.000605626
0.000597126
-0.000166951
-0.000167681
0.00109165
0.00129718
-0.000174932
-0.000174095
0.000941091
0.000885493
0.000895418
0.000813921
0.00078585
0.00171938
0.00191542
0.00160159
0.0018601
0.000103794
2.74877e-05
0.000556658
0.000546811
0.00132821
0.00131629
0.0161624
0.068077
0.0020153
0.00231848
0.000962948
0.000897958
0.000199986
0.000359881
-5.84123e-05
-0.000111029
0.000244613
0.000555231
0.000482197
0.00054534
0.00118204
0.00113309
0.00143451
0.00173247
0.000966517
0.00131061
0.0010393
0.000597416
0.000747137
0.000229637
0.000431212
0.000237688
0.000237202
-0.000119683
-0.000127045
-7.75182e-05
-8.26443e-05
-0.000108585
-0.000111234
0.000727489
0.000696264
0.000845536
0.000766575
0.00170102
0.00108237
0.00102779
0.00121123
0.00174111
0.00184573
0.00158056
0.00185343
0.00124339
0.00123367
0.000819685
0.000856165
0.000834934
0.00100252
0.000513896
0.000689675
0.000317835
0.000317383
0.000258747
0.000418978
0.000336219
0.000187085
0.000464991
0.000445477
0.000394508
0.000370187
0.000125289
0.000142083
-0.000120587
-0.000130873
0.000199061
0.000328832
-0.000124216
-0.000131624
-4.34874e-06
-7.84992e-05
0.000150945
6.0035e-05
0.00106945
0.00109253
0.00188251
0.00164739
0.000505043
0.000437931
0.000556538
0.000497588
0.000668798
0.000613502
0.000746056
0.000689581
0.000771981
0.000821476
0.000883361
0.000930254
0.000975305
0.00102538
0.000587314
0.00051763
0.000624196
0.000688016
-5.87238e-05
-9.76277e-05
0.000212605
0.000136023
0.000392077
0.000472348
0.00060245
0.000511509
-8.86798e-05
-4.08616e-05
-8.8929e-05
-0.000124506
0.000162921
0.000134282
0.00011147
9.12527e-05
-0.00013565
-0.000135852
2.94549e-05
1.67725e-05
0.00512142
0.00525316
0.00124977
0.00107028
-0.000107442
-0.000110079
8.49823e-05
0.000139746
-0.000152163
-0.0001524
0.000989338
0.000990412
0.000923426
0.00106707
-0.000115769
-0.000144982
-0.000144187
-0.000143781
0.00122451
0.00123493
0.00311106
0.00314202
-0.000184743
-0.000183687
-0.000127925
-7.5491e-05
0.00107558
0.00116154
0.000940342
0.00116517
0.000899705
0.000864371
0.000739313
0.000781652
0.000921847
0.000857768
0.00145448
0.00127787
0.000289921
0.000193911
0.00191734
0.001792
0.00088909
0.000958529
0.000785181
0.000781292
0.0318383
0.0320841
0.00710707
0.0290023
0.0688506
0.070925
0.000829343
0.000901119
0.000718031
0.000726532
0.000140538
0.000109599
5.63471e-05
6.35764e-05
-5.50564e-05
-0.000111137
0.000503695
0.000528809
0.000577207
0.000549951
0.00170096
0.00205597
0.000788465
0.000749554
0.000895829
0.000959414
0.00102846
0.00111702
0.00145127
0.00059121
0.00073054
0.000926276
0.000915884
0.000213185
0.00042891
0.000442308
0.000442252
-0.000120823
-0.00012713
-9.26571e-07
-1.29896e-05
-0.00011534
-0.000126782
0.00049078
0.000521842
0.000751979
0.00076833
0.00128169
0.00144594
0.00122026
0.00176168
0.000937517
0.000906899
0.00117031
0.00112788
0.00119288
0.000807794
0.000760616
0.00106289
0.00114893
0.00200915
0.0016556
0.00072193
0.000687135
0.000875251
0.00105689
0.000126602
-2.50468e-05
0.000561312
0.000680667
0.000360667
0.000272124
0.00035467
0.000475237
0.00058473
0.000618739
0.000651706
8.75945e-06
1.14769e-06
0.000159172
0.000176157
5.18414e-05
-4.95826e-05
0.000453491
0.000419031
-2.1812e-05
-8.57738e-05
-0.000123479
-0.000131176
0.000326829
0.000299423
0.000910966
0.000935404
0.0010589
0.00103194
0.00142927
0.00158096
0.00111918
0.0011831
0.000658181
0.000595561
0.000480534
0.000413983
0.000579356
0.000519782
0.00059159
0.000646258
0.000774472
0.000718288
0.000854467
0.00090167
0.000943456
0.000991332
0.00061806
0.000546975
4.11382e-05
-1.56488e-05
0.00026887
0.000343214
0.000241376
0.000334288
0.000480409
0.000567026
4.83605e-05
0.000127989
-0.000134308
-0.000115346
6.72297e-05
2.95712e-05
9.86155e-05
-4.3069e-05
-3.37768e-05
-0.000136022
-0.000124854
-4.33811e-06
7.89385e-06
-3.44917e-05
-2.52326e-05
0.00049716
0.000515539
0.0158936
0.0142264
0.0153936
0.0153855
0.000254748
0.000190086
-0.000153959
-0.000154895
-0.000153979
-0.000154023
-2.77566e-05
-3.09815e-05
0.000555577
0.000552967
0.000996304
0.00112773
-6.63438e-05
-0.000100612
0.000747616
0.00074238
0.000432495
0.000426485
0.000155701
0.000154042
-0.000165782
-0.000166308
0.00111918
0.00111805
0.00156961
0.00154674
0.0012634
0.00128071
0.0216036
0.0219613
0.00134615
0.00136507
-0.000185165
-0.000185907
0.0227144
0.0218166
0.0187308
0.000861367
0.000944039
0.000739725
0.000688368
0.000799493
-3.85524e-05
-3.98476e-05
0.000966759
0.00101721
0.000926438
0.000886868
0.000650473
0.00060993
0.000754912
0.000713597
0.00113669
0.00117118
0.00112634
0.00112431
-0.000180376
-0.000181541
0.000722088
0.000732955
0.000296959
0.00019777
0.000106426
2.5751e-05
0.00111542
0.00106097
0.000130008
0.000134746
0.00057841
0.000567187
0.000687878
0.000683159
0.000777879
0.00077488
0.00188547
0.00186585
-0.00911018
0.00527469
-0.002865
0.00529105
0.00513348
0.000791282
0.000825487
0.000883303
0.000934324
-3.65007e-05
-5.19129e-05
-8.73734e-05
0.000367443
0.000202572
6.53899e-05
0.000314512
0.000172023
-0.000110526
-6.72351e-05
0.000552994
0.00044503
0.000645824
0.000672273
0.00112407
0.00132655
0.000704436
0.000673754
0.00103028
0.000953097
0.00110368
0.00132868
0.000734045
0.000589677
0.000954086
0.00124932
-0.000101812
-0.0001073
0.000236044
0.000232372
-0.000118414
-0.000126957
-2.36653e-05
-3.31816e-05
0.000788617
0.000669847
0.000662764
0.000625296
0.00059205
0.000612096
0.00129397
0.00114189
0.00128624
0.0018193
0.00215737
0.00179361
0.000890362
0.000857395
0.000996758
0.000964115
0.00140801
0.00162641
0.000939332
0.000966673
0.00132095
0.00117703
0.001266
0.00126682
0.000505004
0.000666404
0.000873292
0.00106971
0.000392706
0.000235969
-9.97727e-05
-3.65166e-05
0.000341994
0.000422168
0.000451826
-8.41518e-05
-8.58769e-05
-0.000132145
-0.000110762
0.000297422
0.000172992
-0.000124642
-0.000132224
0.000192531
8.97087e-05
0.00104926
0.00102726
0.00111913
0.0011508
0.00148146
0.00133772
0.00110224
0.00105613
0.00120627
0.000530953
0.000463194
0.0003501
0.000415195
0.000692987
0.000637096
0.000748314
0.000803683
0.000926021
0.000872433
-5.36139e-05
-9.52162e-05
0.000229289
0.00030072
0.000120076
0.000193227
0.000172501
0.000256383
0.000362932
0.000268915
3.42837e-05
0.000109814
-9.27894e-05
-0.000124435
-0.00010425
-0.00013284
-0.000124731
-8.79064e-05
0.000104997
0.000180347
-2.70042e-05
-0.000136138
-0.00012508
-5.86599e-05
-5.13276e-05
-7.74377e-05
-7.1569e-05
0.00104884
0.000963436
0.0160132
0.0143268
0.000587704
0.00122218
0.00091989
0.00112871
0.000359899
0.000355649
-0.000153769
-0.000153564
-0.000142323
-0.000143069
3.03145e-05
3.38206e-05
-0.000152636
-0.000162325
0.00128784
0.00102304
0.00100898
0.00114039
-7.1116e-05
-0.000103924
0.000685693
0.000693325
0.0010574
0.00119032
0.000452713
0.000460178
0.000503761
0.00049741
0.000281307
0.000276894
9.59239e-05
9.7878e-05
2.8196e-05
2.84408e-05
-0.000143463
-0.00014325
0.000464119
0.000570893
0.00131734
0.00110621
0.00110846
0.00109225
0.0183766
0.018708
0.00103907
0.00102705
0.00100155
0.00100675
-0.000173606
-0.000172455
-0.000189831
-0.000165466
0.000181526
0.0002884
0.000536059
0.000547154
0.000470738
0.000973028
0.00103559
0.000999093
0.00109567
0.00114672
0.00109482
-9.23935e-05
-9.32498e-05
0.000560825
0.000534047
0.000945664
0.000908357
0.000852768
0.000822277
0.000768796
0.000813621
0.00147288
0.00147365
0.00121787
0.00142435
8.88918e-05
0.000104557
-0.000165542
-0.000182703
0.00193935
0.00200763
0.000101921
2.9088e-05
0.000198923
0.000299135
0.000103486
2.77813e-05
0.00134389
0.00120997
0.000837379
0.00102092
4.34777e-05
5.57592e-05
0.000496769
0.000429916
0.000507705
0.000460758
0.000130431
0.000141573
0.000590018
0.000599374
0.000835467
0.000838732
0.00107304
0.00107402
0.0327701
0.032135
0.00130441
0.00128137
-0.00123893
0.00169313
0.000704607
0.000687787
-9.6927e-05
-8.47094e-05
0.000187659
0.000337837
3.70957e-05
4.68078e-05
-6.42477e-05
-0.000110484
0.000704532
0.000732099
0.000452768
0.000340671
0.00138319
0.00120232
0.00134105
0.00119288
0.00103096
0.000796782
0.000761447
0.00090294
0.000862935
0.00153282
0.00120219
0.00104115
0.00117786
0.000947605
0.00127075
0.000911392
-9.30375e-05
-9.37475e-05
0.000249216
0.000439778
0.000388785
0.00035466
-4.92498e-05
-9.11483e-05
-7.17446e-05
-6.50598e-05
0.000789917
0.000917737
0.0010062
0.000893598
0.000939748
0.00106986
0.00110189
0.00117095
0.00106002
0.00118114
0.0011606
0.00120131
0.000820455
0.000758341
0.000787147
0.00083852
0.000801292
0.000943397
0.000909789
0.00123534
0.0013808
0.00108413
0.00118274
0.00144047
0.000144574
-3.35966e-06
0.000681479
0.000512447
-0.00010293
-0.000133561
-1.57768e-05
-9.15658e-05
5.44423e-05
0.000171426
0.000748722
0.000782952
0.000482358
0.000515004
1.97844e-05
-6.68543e-05
-0.000115084
-0.000131489
-8.25504e-05
-1.3748e-05
0.000968723
0.000947646
0.00108039
0.00104562
0.0011031
0.00107419
0.00179959
0.00222408
0.0010399
0.00100572
0.00122626
0.0013164
0.000568683
0.000630105
0.000457394
0.000391298
0.000863625
0.000810466
-0.000102012
-7.06174e-05
7.73028e-05
0.000142705
0.000233613
0.000153421
0.00036476
0.00044392
-3.3058e-05
-8.44507e-05
2.19852e-05
9.35252e-05
-0.000123793
-8.95745e-05
-0.000133418
-0.000108475
-8.91867e-05
-0.000124152
0.000118131
0.00020099
-0.000131107
-0.000112616
-0.000136157
-0.000124916
-1.52043e-05
-6.53304e-05
0.00093943
0.00105757
0.00051073
0.00125169
0.00119182
0.00116049
0.000955596
0.000951871
0.000669145
0.000595384
0.000183125
0.00012899
-0.00015328
-0.000152956
-0.000155768
-0.000156581
-0.000154033
-0.000157339
1.59555e-05
1.21666e-05
-0.000114934
-0.000116246
0.000763097
0.000759707
0.00102045
0.00129434
0.000446547
0.00045288
-0.000151122
-0.000164368
-0.000150597
-0.000165203
-2.57574e-05
0.00121165
0.00120907
0.00120431
0.00119731
0.00092715
0.000372653
0.000378388
0.000583058
0.000576472
0.00042071
0.000345694
-0.000146536
-0.000165645
-0.000165351
-0.000165213
0.000319767
0.000315424
8.9476e-05
8.89281e-05
-0.000112383
-0.000112448
0.00121335
0.00121208
0.000513471
0.000422456
-0.000220744
-0.000220482
0.00126796
0.00123265
0.00107692
0.00124809
0.0178327
0.0180157
0.011893
0.0120456
0.0013156
0.00132958
0.000874375
0.000877753
0.000175719
0.000269291
-0.000124114
-7.22136e-05
-0.000165727
-0.000190905
-7.48941e-05
-0.000127724
5.63971e-05
0.00015914
0.0140285
0.0237116
0.000680609
0.000606984
0.0010058
0.000917972
0.000832754
0.000826291
0.00110777
0.00109457
0.000981765
0.000868069
0.00102897
2.58123e-05
-2.31873e-05
0.00030139
0.000281846
0.00101418
0.00104615
0.000966129
0.000845847
0.000881534
0.00086566
0.000910851
0.00153166
0.00116863
0.00109884
0.0011818
0.00126664
0.00164268
0.00158739
0.000741625
0.000672062
-0.000163791
-0.000161862
1.89744e-05
0.000112892
0.000318823
0.000326583
-0.000210629
-0.000203637
0.000966299
0.00101658
0.000200329
0.000301567
0.00133424
0.00118273
0.00103347
0.000847985
-5.12589e-05
-4.56123e-05
7.1976e-05
8.46097e-05
0.000431946
0.00049866
0.0206097
0.0205288
0.0152824
0.0220202
0.00103822
0.00111276
0.000609455
0.000620315
0.000727038
0.000723638
0.00108926
0.00109284
0.00103558
0.001033
0.032407
0.0326175
0.000445031
0.000640934
0.000604993
0.000578091
0.000795819
0.000881232
0.000309209
0.000284256
5.82644e-05
4.0064e-05
0.000155573
0.000291152
-6.13341e-05
-0.000110671
0.000762047
0.000656805
0.000478469
0.000367805
0.000978787
0.000932346
0.000987978
0.000836388
0.000895721
0.000860252
0.000734872
0.000853572
0.00081459
0.000982362
0.000958059
0.000907647
0.000902592
2.64915e-05
2.46657e-05
-6.2164e-05
-9.79392e-05
-8.71267e-05
-4.16612e-05
-2.47443e-05
-3.42209e-05
0.000402417
0.00044936
0.00086113
0.000824994
0.00102525
0.0010767
0.000973326
0.000969196
0.000925722
0.000983467
0.00100259
0.00107634
0.000981368
0.00102549
0.00133728
0.00162566
0.00179598
0.00152734
0.00169844
0.000783574
0.000690842
0.000730363
0.000925847
0.000873704
0.00105213
0.00101194
0.00108094
0.00125587
0.00115992
0.00155981
0.00123086
0.00111879
0.00122253
0.000138571
-1.08277e-05
-0.000115458
-0.000122571
-0.000127023
-0.000133649
-9.27909e-05
-8.08276e-05
2.16898e-05
-6.94783e-06
-8.83539e-05
0.000211996
7.719e-05
0.000675879
0.000713423
0.000301101
0.000274954
-5.89414e-05
3.48679e-05
0.000928965
0.000907383
0.00100755
0.0010491
0.00101664
0.000991461
0.00127605
0.00118292
0.00164476
0.00157002
0.00185113
0.00224248
0.00132239
0.0015161
0.00143112
0.00116159
0.000543445
0.000603829
-6.75681e-05
-0.000101238
0.000158184
9.07698e-05
0.000248351
0.000321259
0.000280658
0.000193246
0.00033877
0.000416859
-2.39476e-05
-7.93628e-05
-0.000134659
-0.00011794
-0.000133907
-0.000112166
0.000133191
0.000222696
-0.000129848
-0.000109465
-0.000151973
-0.000149453
0.00100853
0.00134235
0.00110401
0.00108637
0.00917212
0.00978632
0.0121591
0.011451
0.00302507
0.00249284
0.000421448
0.000495447
0.000294821
0.000298683
0.000252681
0.000306172
9.61282e-05
9.15251e-05
-0.000145947
-0.000146564
-0.000100424
-0.000102617
-0.000153998
-0.000153913
-0.000143816
6.54475e-05
6.14205e-05
1.96166e-05
-0.00015929
-0.000159842
-0.00016163
-0.00016199
0.0155041
0.0156179
0.000363836
0.000364723
0.000443583
0.00036422
0.0133098
0.0142634
0.000730546
0.000652548
0.000433936
0.00042767
0.000191138
0.000258422
-0.000150782
-0.000164934
-0.000149858
-0.000165875
0.000849927
0.000860315
0.00105679
0.000914318
0.000736171
0.000655596
0.000517367
0.000525406
0.000350869
0.000356139
-0.000149398
-0.000165986
-0.000144011
-0.000113896
0.000234455
0.000237851
2.87567e-05
9.06237e-05
-0.000165216
-0.000165426
-0.000112548
-0.000112445
0.000603722
0.000605539
0.00090741
0.000897726
0.000437266
0.000532001
0.000606967
0.000207711
0.000209922
0.000459372
0.0004542
0.0011935
0.00118945
0.00350018
0.00396089
0.0166564
0.0163356
0.0172035
0.0169444
0.0212081
0.0210064
0.00309646
0.0118186
0.00159478
0.00158009
0.00163652
0.00166078
-0.000171161
-0.000170394
3.5839e-05
0.000107965
-0.000164791
-0.000188291
0.000262009
0.00026281
-7.26051e-05
-0.000126545
-0.000165652
-0.000190393
-0.000191531
-0.00015766
0.00067688
0.000520577
0.0231041
0.0222229
0.00103467
0.00111914
0.000905139
0.00086972
0.00082855
0.000906401
0.000853545
0.00101447
0.000948582
0.00106322
0.00117871
0.00079598
0.000615828
0.000591309
0.000231612
0.000326742
0.000312723
0.000161479
0.000508289
0.000396348
0.000932924
0.000971822
0.000644033
0.000592413
0.000831992
0.000793553
0.000928975
0.000908959
0.000849052
0.0010795
0.0010055
0.00106706
0.00143171
0.0010379
0.000960068
0.00103416
0.0106531
0.013907
0.000153299
0.00016983
0.000577467
0.000572087
-0.000232176
-0.000253399
0.00106016
0.0010485
0.000473904
0.000484
-0.000205961
-0.0002048
0.00314492
0.00945606
0.00102629
0.000963238
0.000103106
2.80866e-05
0.000105524
2.66555e-05
0.000919341
0.0011269
0.000891525
0.000923808
0.000882956
0.00107323
-0.000169661
-0.000169899
-6.13779e-06
3.95887e-06
9.83217e-05
0.000112717
0.000291049
0.000284909
6.00822e-05
6.003e-05
0.0183474
0.019597
0.0211078
0.00110735
0.00103422
0.000153559
0.000144496
0.00071226
0.000705216
0.00067888
0.000674976
0.000954242
0.00095399
0.0305382
0.0309006
0.000952491
0.000943598
0.00121577
0.00120144
-1.67362e-06
0.000923772
0.00230661
0.00293296
0.000503047
0.000471755
0.000757465
0.00085659
0.000168403
0.000328509
1.10381e-05
-8.79428e-06
0.000139099
0.000267818
-5.05289e-05
-0.000109886
0.00063112
0.000604667
0.00183099
0.00221877
0.00108219
0.000825843
0.000739108
0.0005924
-9.47264e-05
-5.6071e-05
-5.02836e-05
0.000584721
0.000539505
0.0010269
0.000961583
0.0013243
0.00157112
0.00163757
0.000894687
0.0008246
0.000895387
0.00111656
0.00152296
0.00159973
0.00197979
0.00206324
0.00233133
0.000815396
0.000720465
0.000963739
0.00100753
0.00103639
0.000981878
0.00112484
0.00101856
0.000988167
0.00144383
0.00106872
0.00047451
0.000323927
0.000416136
0.000803213
0.000950657
-0.000131181
-0.000110405
-5.8641e-05
7.93883e-05
-0.000132943
-8.75033e-05
5.04504e-06
-8.99201e-05
0.000251378
0.000109313
-2.52679e-05
-9.53326e-05
0.000586875
0.00055514
0.000946292
0.000919055
0.000843545
0.000820449
0.000886791
0.000927773
0.000967609
0.00109051
0.00112891
0.00124293
0.00131943
0.00287697
0.00253806
0.0014122
0.00101961
0.00107087
0.00126383
7.86374e-05
1.10163e-05
-6.32936e-05
-9.96357e-05
0.00021188
0.000281821
0.000306724
0.000216206
-0.000134947
-0.000119956
3.49722e-05
-3.41069e-05
0.000966707
0.000971778
-0.000143256
-0.000134046
0.000321898
0.000314526
-0.00012236
-0.000121312
0.000868128
0.000874413
0.0152352
0.0109139
0.00708746
0.0078273
0.000789527
0.000681087
0.0107953
0.00117893
0.00117316
0.000482382
0.000409133
0.000562752
0.000569702
0.000861273
0.000853405
0.000420446
0.000416606
0.000133642
0.00018893
-9.53089e-05
-6.90012e-05
-0.000152925
-0.000152491
-0.000147077
-0.000127304
-0.000104948
-0.000144554
-0.000145272
0.000118277
0.000114
-6.25316e-05
-2.46353e-05
-8.13815e-05
-8.31904e-05
-0.000152868
-0.000153091
0.000561114
0.000576685
0.000457005
0.000456178
0.000700705
0.000703528
0.000525733
0.00101364
0.00131644
0.000885694
0.000895189
0.000308718
0.000380194
0.000515422
0.000590897
-0.000151316
-0.000164086
6.40578e-05
1.32636e-05
-0.000129294
-0.000129931
-0.000150162
-0.000165689
-0.000127132
0.00121248
0.00121278
0.00108243
0.00109961
0.000662098
0.000668448
0.000630863
0.00061785
0.000510448
0.000589885
3.17754e-05
2.88963e-05
-0.000147792
-0.000165884
-0.000120138
0.000165238
0.000167947
0.000228067
0.00022517
0.000157719
-0.000143245
-0.00014343
-2.13981e-05
-2.21782e-05
-0.000112384
0.00108702
0.00123613
0.00103925
0.00102778
0.000711356
0.000805107
0.000628223
0.000616543
0.00138394
0.00139394
0.010558
0.0183622
0.00133303
0.00142247
0.00147708
0.00163623
0.00165297
0.00122033
0.00121826
0.00106118
0.00104506
0.0160551
0.00603189
0.0205077
0.0204095
0.0117301
0.0116539
0.0214252
0.0182128
0.00128682
0.00129048
0.00167788
0.00166079
0.00066691
0.000672399
2.66244e-05
2.69534e-05
0.00026971
0.000269677
-8.46474e-05
-3.02283e-05
-0.000152922
-0.000120337
-4.73352e-05
-4.343e-05
-7.41053e-05
-0.000126143
-1.07485e-05
6.81312e-05
0.00135452
0.00133967
-0.000165637
-0.000191353
0.000177585
0.000284913
-0.000105508
-3.57453e-05
-0.000213642
-0.000180693
0.0198847
0.00808997
0.0140624
0.000488435
0.000477765
8.83994e-07
-6.47808e-06
0.000740253
0.000692869
0.00071046
0.000806605
0.00116576
0.00136113
0.000809513
0.00118861
0.00110683
0.00108336
-8.26902e-05
-8.4469e-05
-1.34256e-05
3.99397e-05
0.000134513
0.000122075
-3.79079e-05
-8.23158e-05
0.000144789
0.000118941
0.000578358
0.000455394
0.00104585
0.00126576
0.000750508
0.000714203
0.000625721
0.00057829
0.000976299
0.000922738
0.000877132
0.000815807
0.000864151
0.00079047
0.000882742
0.000909305
0.00108044
0.000964432
0.00110856
-4.45091e-05
-2.55698e-06
-0.000104304
0.0011877
0.000866177
0.000827639
-0.000178022
-0.000179206
0.000375766
0.000301894
0.000154566
0.000253645
0.00105282
0.00104263
-5.17489e-05
-5.08116e-05
0.000876475
0.000866704
0.000643921
0.000656524
0.000158466
0.000161562
-0.000211734
-0.000212842
0.000371535
0.00027345
0.00103586
0.000960557
0.000752461
0.000902442
0.000102618
2.83189e-05
0.000419264
0.000535106
0.000106052
2.60204e-05
0.000107767
1.47735e-05
0.000856497
0.000875923
0.0166151
0.0165193
0.00108876
0.00111204
0.00111133
0.00109704
0.00122178
0.00129889
-0.000248357
-0.000249822
-2.43969e-05
-1.57681e-05
0.000141309
0.000126843
0.000231527
0.000237805
0.00010449
0.000104468
0.000616534
0.000569215
0.000762728
0.000826325
0.000956371
0.000888616
-8.04741e-05
-8.16012e-05
0.000790382
0.000808209
0.00063251
0.00062828
0.000730891
0.000735162
0.00102637
0.00102731
0.0312507
0.0315292
0.00105578
0.0010628
0.000974011
0.00096983
0.00125565
0.00123418
0.00138919
0.00184572
0.00057649
0.000560038
0.000580716
0.000479694
0.000543807
0.000719822
0.000686119
0.000188379
0.000343951
2.78045e-05
0.00150858
0.00060234
0.000631728
-9.81662e-05
-0.00012234
-0.000106401
0.000711092
0.000831935
0.000627983
0.000662984
0.00100498
0.00117747
0.00157125
0.00101719
0.00135541
0.00231456
0.00284777
0.0011898
0.00132089
0.00201206
0.000668952
0.000640143
0.00108688
0.00115035
0.0010453
0.00099444
0.00113444
0.00115857
0.00146996
0.00126372
0.00125554
0.0004761
0.000322044
0.00077557
0.00091607
-0.000132611
-0.000107087
6.78358e-05
-5.8675e-05
-2.54692e-05
-0.000105196
-0.000133934
-9.81777e-05
9.32154e-05
0.000228149
0.000951719
0.000975965
0.000798362
0.000843814
0.000987108
0.00100832
0.0011241
0.00117885
0.00201837
0.00166573
0.000974999
1.18748e-06
6.50954e-05
-4.76621e-05
-9.22339e-05
0.000175112
0.000105135
-0.000123658
-8.7836e-05
0.000920185
0.000927629
-8.54591e-05
-5.47863e-05
-0.000143217
-0.000147116
0.000219026
0.000289951
0.00111197
0.00117168
0.000165223
0.000162711
0.00141295
0.00140271
0.000396956
0.000399471
0.00105226
0.00105781
0.000394974
0.00130708
0.00903205
0.00850186
0.0153481
0.00851779
0.0101751
0.00959206
0.0010475
0.00110458
0.000475928
0.000403043
0.000488875
0.000415265
0.000905407
0.000895832
0.000545712
0.000541451
0.000482407
0.000478512
0.000244669
0.000238967
-1.48569e-05
-6.85384e-06
8.07534e-05
3.46919e-05
-0.000134772
-0.000117265
-0.000150712
-0.000151877
-0.000125806
-0.000124361
6.93995e-05
0.000122549
-0.000121578
-0.000122952
-0.000112339
-0.000111066
-0.000136998
-0.000137773
0.00975523
0.010016
0.00163572
0.00164311
0.000551392
0.000550602
0.000444629
0.000364074
0.000444437
0.00036666
0.00130862
0.00101574
0.000575636
0.00056499
0.000924084
0.00104321
0.000374413
0.000303324
0.000576704
0.00050206
4.76222e-05
-7.34801e-07
0.000195165
0.000263113
1.85096e-05
7.02374e-05
-0.000101719
-6.79258e-05
-0.000130559
-0.000150946
-9.81257e-05
-6.29205e-05
-0.000150405
-0.00016546
0.000562261
0.000553575
0.00114474
0.0011578
0.000939104
0.00095444
0.00116336
0.00103335
0.000361477
0.000367016
0.000534545
0.000544342
0.000298513
0.000294369
8.50926e-05
8.20868e-05
-0.000148696
-0.000165975
3.23063e-05
3.36161e-05
0.000306899
0.000302692
-2.37051e-05
-2.43116e-05
-0.000112655
-0.00011303
-2.29641e-05
-7.34159e-05
0.000733149
0.000735944
0.00106695
0.00106684
0.000917208
0.00104988
0.000737743
0.000825158
0.000522024
0.000429474
0.000113316
0.000114669
0.000146566
0.000148963
-0.00018363
-0.000118554
0.000766779
0.000756218
0.00134046
0.0011223
0.00158189
0.00161224
0.0197996
0.0195949
0.00102706
0.00100209
0.00592601
0.00583344
0.00615915
0.0063107
0.00144109
0.00146999
0.00307954
0.00306576
0.00155046
0.00153453
0.00131323
0.00130122
0.000877765
0.000889448
0.000491057
0.000496994
0.00031255
0.000397588
8.9344e-05
8.85664e-05
0.000176779
0.000177396
3.3893e-05
0.000106543
-0.000186638
-0.000186786
-9.80547e-05
-9.35954e-05
-7.53095e-05
-0.000127262
6.90536e-05
7.02141e-05
-1.0141e-05
-1.05863e-05
0.000160084
0.000263856
-0.000127277
-7.39788e-05
1.56081e-05
9.29053e-05
-3.64796e-05
-0.000105406
5.72747e-05
5.7274e-05
0.00100225
0.00273606
0.00170841
0.00149247
0.00827749
0.000467986
0.000513505
0.00163047
0.0017931
0.000384672
0.000357055
0.00125237
0.0014037
0.000567415
0.000624545
0.000787318
0.000756799
0.000782314
0.000819403
0.000819263
0.000752154
0.00100485
0.000920412
0.00112685
0.00116615
0.000893668
0.00087543
0.000156647
9.9204e-05
0.000497693
0.000429182
0.000120431
0.00010285
-7.57673e-05
-7.45839e-05
-8.2657e-05
-6.46985e-05
0.000323246
0.000175549
3.04653e-05
8.98648e-06
0.000764257
0.000930544
0.000447752
0.000597239
0.00105212
0.00126019
0.000666247
0.000684282
0.00064879
0.000564775
0.000867997
0.000825119
0.000804262
0.000746489
0.000724725
0.00075133
0.000794497
0.000840396
0.00122994
0.00124211
0.00140457
0.00146531
0.00169089
0.00116174
0.0013847
-0.000126556
-0.00016664
0.00114129
0.00116402
0.000798852
0.00082011
7.18119e-05
0.000137602
-0.000133567
-0.000130415
-0.000170209
-0.000186235
0.00666296
0.00768324
0.000103965
0.000165824
0.00104631
0.00103943
-0.000199798
-0.000198904
2.23429e-05
2.06657e-05
0.00120463
0.0012317
0.0011265
0.00112397
0.000314808
0.000468657
0.000164695
0.00016786
-9.71948e-05
-9.76262e-05
0.000731095
0.00142871
0.000759849
0.000896605
0.000383676
0.000282021
0.00107072
0.00106162
0.000621334
0.00062583
0.000195123
0.000292251
0.000102326
2.87219e-05
0.000798793
0.000964482
0.000530601
0.000415955
0.000105864
2.637e-05
0.000106248
2.1963e-05