/*--------------------------------*- C++ -*----------------------------------*\
  =========                 |
  \\      /  F ield         | OpenFOAM: The Open Source CFD Toolbox
   \\    /   O peration     | Website:  https://openfoam.org
    \\  /    A nd           | Version:  7
     \\/     M anipulation  |
\*---------------------------------------------------------------------------*/
FoamFile
{
    version     2.0;
    format      ascii;
    class       volScalarField;
    location    "660";
    object      T;
}
// * * * * * * * * * * * * * * * * * * * * * * * * * * * * * * * * * * * * * //

dimensions      [0 0 0 1 0 0 0];

internalField   nonuniform List<scalar> 
238806
(
0.976497
0.985075
0.886784
1.20182
1.07016
0.995181
0.98475
0.978713
0.97741
0.923502
0.948869
1.08082
0.991979
0.990301
1.07591
1.06761
0.934789
0.933259
0.980863
0.994309
0.981005
0.977323
1.02884
0.919594
1.05669
0.891698
0.907429
0.921002
0.982384
1.0562
0.992222
0.992021
0.958261
0.969382
0.989552
0.989641
0.52043
0.511098
0.954446
0.990222
0.98296
1.14985
0.988042
0.988004
0.993006
0.979701
0.923418
0.922879
0.972652
0.969066
0.991592
0.992066
0.992001
0.989801
0.959728
0.959192
0.914512
0.894696
0.939333
0.894205
0.91467
0.944753
0.94412
0.959857
0.963775
0.992619
0.992182
0.977775
0.977999
0.98542
0.985137
0.971736
0.968874
0.968414
0.971267
0.994761
0.984811
0.991434
0.991602
0.968786
0.971412
0.969708
0.97094
0.974375
0.974089
0.978808
0.980388
0.919406
0.942904
0.927304
0.922791
0.964678
0.963767
0.975056
0.962042
0.990898
0.991204
0.94718
0.9277
1.15323
0.97925
0.98657
0.980964
0.991718
0.994224
0.972304
0.969441
0.968614
0.968673
0.971785
0.964813
0.975888
0.984113
0.992209
0.991331
0.991177
0.991645
0.389951
0.250439
0.29969
0.890748
0.935564
0.973005
0.973244
0.99563
0.98481
1.01697
1.02894
0.922904
1.00656
0.978306
0.900695
0.908509
1.16384
0.894883
0.931793
0.976136
0.975898
0.835831
1.02501
0.980817
1.08165
0.964332
0.96302
0.946509
0.984471
0.979596
0.982377
0.987687
0.984978
0.979496
0.988224
0.982602
0.96802
0.96887
0.971867
0.968963
0.970802
0.970752
0.981866
0.978508
0.994507
0.987158
0.991326
0.989345
0.989757
0.989927
0.980062
0.978474
0.694283
0.686442
0.970146
0.971315
0.866925
0.861584
0.735447
0.973333
0.974271
0.990817
0.985725
1.00267
1.01171
1.25895
0.90582
0.890582
0.919473
0.87879
1.0291
0.974605
0.975585
0.992452
0.992539
0.947295
0.975641
0.92289
0.908378
0.93231
1.05235
1.17945
0.984597
1.08697
0.971924
0.973772
0.976707
0.970507
0.976904
0.972968
0.97265
0.972575
0.980162
0.985983
0.908921
0.910694
0.968778
0.968158
0.966936
0.970142
0.931128
0.94691
0.969658
0.968213
0.983364
0.978362
0.978607
0.993747
0.989138
0.991086
0.990335
0.990436
0.982385
0.982698
0.964138
0.964643
0.965435
0.966204
0.93957
0.938486
0.976568
0.975827
0.938057
0.966417
0.856844
0.787234
0.959075
0.958714
0.973609
0.978026
0.984477
0.989734
0.98455
0.984584
0.967702
0.970096
0.949457
0.938227
0.934395
0.953784
0.964744
0.974394
0.961378
0.963284
0.991863
0.992516
0.991893
0.990147
0.965788
0.962998
0.963279
0.964038
0.923386
0.918173
0.952291
0.976574
0.907219
1.13527
1.00645
0.973403
0.971272
0.98229
0.978401
0.980453
0.985621
0.977772
0.975018
0.991241
0.990527
0.99201
0.990628
0.958589
0.962757
0.920222
0.921429
0.968288
0.968387
0.96721
0.961535
0.966143
0.957088
0.954022
0.939506
0.969532
0.970816
0.99339
0.992414
0.973455
0.970248
0.992346
0.991203
0.994691
0.981959
0.989164
0.989653
0.989618
0.990221
0.987192
0.987814
0.899438
0.899326
0.980784
0.981112
0.974223
0.9737
0.970858
0.96823
0.95808
0.956947
0.936458
0.937605
0.321009
0.971616
0.974632
0.972151
0.976006
0.898419
0.896724
0.984607
0.984562
0.862878
0.862902
0.998383
0.924648
0.995805
0.985215
0.984928
0.990265
0.98378
0.980978
1.06957
1.10544
0.953843
1.12445
1.00803
1.00408
0.895955
0.987185
0.994666
0.993206
0.985843
0.987983
0.987962
0.991922
0.990624
0.957502
0.970977
0.943654
0.949866
1.01388
0.961025
1.01702
0.979551
0.980988
0.944522
0.944527
1.26208
1.01194
0.981605
0.993314
0.969211
0.966659
0.96472
0.961677
0.992833
0.991202
0.973948
0.959051
0.975455
0.960909
0.969333
0.968398
0.96712
0.966991
0.994153
0.991279
0.992036
0.988373
0.990472
0.991
0.986795
0.980886
0.983704
0.983525
0.911041
0.912367
0.974594
0.978064
0.967687
0.968131
0.968677
0.965122
0.952709
0.940895
0.927476
0.92284
0.96861
0.970089
0.992404
0.991216
0.975596
0.971418
0.991248
0.992316
0.988444
0.987073
0.991155
0.991287
0.989495
0.990092
0.986637
0.95445
0.954927
0.982798
0.983079
0.978833
0.978422
0.98101
0.98134
0.962718
0.962244
0.951424
0.952261
0.958733
0.957851
0.889237
0.87039
0.950937
0.951935
0.948287
0.958687
0.950873
0.95404
0.959616
0.700261
0.916344
0.927129
0.972441
0.960772
0.960327
0.968864
0.969186
0.876279
0.877946
0.691863
0.376976
0.989121
0.86342
0.901846
0.999819
0.98396
0.983621
0.993816
0.983815
0.984857
0.972687
0.96699
0.976788
0.935692
0.897306
1.04272
1.11894
0.878055
1.08519
0.912968
0.97479
0.961121
0.98248
0.975716
0.982936
0.982973
0.991769
0.989718
0.989686
0.989939
0.991803
0.99189
0.980646
0.977267
0.958405
0.959362
1.07006
0.928991
0.930277
0.931108
0.951913
1.11224
1.00746
1.07861
0.942321
0.970152
0.967353
0.966305
0.968282
0.97062
0.97359
0.971949
0.978907
0.978637
0.980345
0.977917
0.979059
0.983347
0.971836
0.973646
0.976027
0.976762
0.992289
0.991901
0.99112
0.990524
0.98306
0.978644
0.99084
0.990317
0.990943
0.991964
0.983559
0.988856
0.921921
0.917512
0.965278
0.990951
0.971032
0.974654
0.968703
0.971257
0.967613
0.967526
0.96946
0.968676
0.969077
0.96726
0.959552
0.949167
0.935084
0.925872
0.968373
0.970537
0.968136
0.96916
0.991125
0.991993
0.98493
0.98854
0.977391
0.972869
0.969554
0.969539
0.992241
0.991182
0.991519
0.990659
0.982721
0.985805
0.985253
0.986132
0.989468
0.989385
0.988516
0.989157
0.752123
0.748078
0.851414
0.855173
0.981494
0.981759
0.979569
0.977965
0.974133
0.974645
0.934412
0.934034
0.933385
0.927498
0.965846
0.964491
0.958957
0.959814
0.806255
0.802924
0.628395
0.620026
0.934298
0.937481
0.923293
0.926326
0.948858
0.950075
0.965572
0.988914
0.950488
0.950789
0.966404
0.958555
0.957413
0.948738
0.985654
0.969848
0.959993
0.96357
0.722306
0.722376
0.954466
0.949063
0.960898
0.960536
0.547397
0.551063
0.749691
0.618552
0.382943
0.375734
0.992583
0.943781
0.960013
0.960931
0.984388
0.984727
0.986858
0.986268
0.994108
0.984182
0.971932
0.970469
0.96796
0.973463
1.03982
0.988494
0.975598
0.974027
0.946719
0.92297
0.916537
0.920607
1.10657
0.974249
0.960686
0.987113
0.991844
0.984983
0.976801
0.975732
0.976077
0.991681
0.989503
0.987124
0.987437
0.99193
0.990372
0.973633
0.969433
0.983005
0.984843
0.938742
0.993593
0.906443
1.14766
0.937264
0.951303
0.941431
0.818627
1.02942
0.980227
0.977156
0.933157
0.932695
1.11606
1.12234
0.968412
0.970259
0.961032
0.961203
0.99139
0.992729
0.971021
0.952407
0.982169
0.975068
0.98528
0.974598
0.968631
0.970858
0.970061
0.99119
0.991327
0.991277
0.989956
0.989244
0.992149
0.975003
0.98536
0.991253
0.991793
0.990928
0.990424
0.984767
0.98421
0.955502
0.949513
0.922655
0.928101
0.928315
0.941697
0.919703
0.920161
0.96834
0.968136
0.972246
0.975919
0.968155
0.970239
0.967704
0.967239
0.969609
0.969433
0.964418
0.956327
0.944439
0.932755
0.968214
0.969395
0.99249
0.992185
0.982641
0.979506
0.983502
0.981128
0.971328
0.969701
0.994154
0.988955
0.989866
0.992239
0.991386
0.986142
0.98284
0.993796
0.993265
0.989312
0.991032
0.990377
0.989516
0.991822
0.991541
0.971108
0.970233
0.586178
0.626527
0.618678
0.617138
0.974635
0.97701
0.980728
0.980369
0.978774
0.979177
0.981914
0.982257
0.959556
0.959186
0.935126
0.928933
0.972485
0.971122
0.943656
0.944324
0.961006
0.961646
0.966901
0.967512
0.96043
0.959592
0.869979
0.872014
0.843961
0.847189
0.796501
0.793369
0.274802
0.265071
0.848872
0.844798
0.936072
0.932922
0.262248
0.275716
0.316515
0.957392
0.962707
0.954904
0.938381
1.00348
0.998839
0.998886
0.984297
1.02428
0.947412
0.948114
0.972341
0.972889
0.963454
0.968906
0.934443
0.91583
0.916146
0.937203
0.988729
0.988404
0.922725
0.92123
0.957359
0.960833
0.953047
0.951914
0.832908
0.792922
0.982319
0.982434
0.968218
0.968544
0.962786
0.962584
0.960177
0.9598
0.860676
0.860136
0.852363
0.887901
0.85998
0.879685
0.872508
0.974003
0.975642
0.996366
0.883999
0.99561
0.995766
0.985892
0.9786
0.983953
0.986013
0.984981
0.983373
0.983475
0.992758
0.969086
0.977265
0.97093
0.968361
0.915351
0.970631
0.969425
0.968425
0.911735
0.937588
0.934176
1.00827
0.961263
0.974821
0.875695
1.02105
0.987696
0.98521
0.98302
0.983563
0.991845
0.989925
0.987719
0.988013
0.961681
0.970465
0.974224
0.972487
0.961559
0.961765
0.959384
0.931134
0.917597
1.05062
1.13583
0.931685
0.954899
0.963447
0.933192
0.937725
0.969354
1.02205
0.924779
0.912554
0.946207
0.94901
0.928131
0.931701
0.973593
0.971594
0.964907
0.978504
0.97825
0.981329
0.993345
0.99199
0.979173
0.974914
0.973924
0.994085
0.994028
0.99034
0.991599
0.979711
0.9842
0.990782
0.990244
0.981857
0.987642
0.925304
0.930459
0.913479
0.910423
0.938593
0.923706
0.921349
0.922383
0.927374
0.969899
0.973278
0.97894
0.975648
0.968162
0.967612
0.970144
0.969032
0.9488
0.960922
0.991158
0.992089
0.984184
0.981206
0.989378
0.985757
0.986457
0.983316
0.980012
0.983113
0.993765
0.990286
0.990214
0.990537
0.993091
0.990154
0.990733
0.991729
0.98768
0.984613
0.990439
0.989259
0.990929
0.993412
0.993714
0.992091
0.99256
0.902842
0.861206
0.582363
0.62303
0.866241
0.899145
0.858427
0.899465
0.973791
0.974178
0.980664
0.981006
0.979188
0.97958
0.98072
0.980278
0.975146
0.974736
0.910419
0.924763
0.93409
0.927659
0.974022
0.972731
0.943409
0.942491
0.929219
0.921427
0.958945
0.958201
0.9581
0.958784
0.966437
0.967015
0.965288
0.964559
0.96799
0.968673
0.960648
0.96146
0.951056
0.946253
0.867633
0.886957
0.726942
0.73122
0.319224
0.309056
0.882744
0.884984
0.903168
0.902044
0.931022
0.932405
0.916677
0.920093
0.928285
0.930539
0.986454
0.982297
0.972216
0.947537
0.9448
0.97952
0.972469
0.939811
0.904851
0.991846
0.991703
0.976207
0.976009
0.940523
0.944474
0.949837
0.953209
0.962436
0.952797
0.970932
1.03137
0.943843
1.02807
0.978871
0.978709
0.98613
0.988064
0.751017
0.745537
0.965677
0.965662
0.959888
0.956461
0.961793
0.961439
0.859275
0.877918
0.905853
0.890018
0.984544
0.985018
0.97398
0.976351
0.969375
0.972139
0.984271
0.984605
0.96697
0.966683
0.959395
0.959704
0.908241
0.910156
0.569282
0.586161
0.879085
0.879949
0.854064
0.997062
0.959477
0.96136
0.990634
0.988408
0.983419
0.984612
0.988386
0.987635
0.993161
0.983541
0.971758
0.965369
0.970086
0.982924
0.955838
0.926426
0.955476
0.929753
0.901537
0.977079
0.971923
0.938728
0.955306
1.18111
0.961251
0.92151
0.952615
0.878702
1.02438
0.996171
0.988365
0.987985
0.985161
0.97472
0.982963
0.984374
0.988522
0.99032
0.989417
0.989079
0.969075
0.957219
0.978048
0.954297
0.951554
0.951911
0.921588
0.938092
0.933629
0.898534
0.955175
0.866147
0.962784
0.979351
0.979664
0.970384
0.972122
0.941666
0.949716
0.931366
0.975263
0.939001
0.909085
1.00741
0.990105
0.992575
0.970566
0.972863
0.994044
0.989255
0.991752
0.993795
0.99254
0.991266
0.967086
0.966696
0.973521
0.972462
0.990302
0.992105
0.991413
0.99049
0.99185
0.991084
0.943032
0.948621
0.919632
0.924648
0.915903
0.920324
0.954683
0.966155
0.92302
0.929385
0.930135
0.943557
0.968573
0.967922
0.97346
0.977065
0.96301
0.969008
0.991664
0.991191
0.990768
0.988075
0.984115
0.987566
0.97886
0.97447
0.991188
0.992304
0.993378
0.991181
0.99062
0.990706
0.990048
0.992805
0.991687
0.990759
0.984381
0.983197
0.989816
0.98928
0.989228
0.990861
0.991032
0.992998
0.863663
0.904331
0.86827
0.898939
0.89931
0.899411
0.897357
0.89619
0.95489
0.958994
0.980874
0.983393
0.981338
0.981083
0.979999
0.979621
0.979566
0.979232
0.982366
0.982747
0.976982
0.977404
0.947378
0.947247
0.925175
0.91076
0.964073
0.963435
0.971402
0.970893
0.969624
0.969054
0.973692
0.916134
0.917596
0.918998
0.920291
0.934427
0.962026
0.961377
0.953755
0.954472
0.962271
0.965084
0.965155
0.96432
0.963587
0.96283
0.960828
0.961508
0.968017
0.968644
0.962179
0.962963
0.901823
0.903226
0.951988
0.955739
0.884892
0.882753
0.820107
0.81656
0.735511
0.799689
0.337067
0.330977
0.43706
0.427997
0.749449
0.74546
0.913445
0.912483
0.95192
0.952881
0.933901
0.936165
0.916763
0.913195
0.924873
0.921728
0.913668
0.917947
0.407124
0.260368
0.95855
0.954291
0.96974
0.955799
0.91373
0.940353
0.991709
0.929337
0.963983
0.922826
0.978761
0.986255
0.992096
0.979489
0.979116
0.946327
0.958712
0.927685
0.951837
0.948532
0.952723
0.948968
1.15009
0.935866
0.984176
0.934295
0.969982
1.15031
1.05965
0.946889
0.948084
0.986447
0.986747
0.935076
0.934932
0.903498
0.900971
0.930582
0.930623
0.899356
0.91276
0.958918
0.955533
0.861283
0.88111
0.888175
0.904236
0.986732
0.986558
0.984614
0.984902
0.976529
0.974174
0.593306
0.596495
0.653945
0.593588
0.937277
0.915966
0.966397
0.966111
0.961305
0.961042
0.917616
0.917825
0.930292
0.932105
0.554883
0.56098
0.86446
0.865551
0.965494
0.967364
0.985293
0.960249
0.985754
0.986316
0.986587
0.988218
0.983592
0.984987
0.993519
0.983634
0.979137
0.970819
0.976155
0.981977
0.903854
0.925012
0.92355
0.959653
0.957932
0.976886
0.973089
0.96325
0.971821
0.914355
0.926611
0.997966
0.99738
0.986983
0.994586
0.988945
0.99058
0.990139
0.988272
0.988085
0.989994
0.985873
0.978384
0.959643
0.964805
0.956723
0.980297
0.941361
0.966536
0.963561
0.978345
0.972809
0.956302
0.940536
0.960361
0.973212
1.04639
1.04645
0.931507
0.943753
0.972472
0.975369
0.970225
0.943292
0.954744
0.933474
0.915888
0.932685
0.947884
0.932911
1.09946
0.90712
0.941431
0.917274
0.990848
0.99279
0.993933
0.994681
0.989615
0.989871
0.994192
0.993042
0.99078
0.991422
0.993896
0.981333
0.992851
0.967015
0.966922
0.979742
0.981864
0.992113
0.989793
0.952135
0.956828
0.935605
0.92653
0.930529
0.936861
0.922198
0.914063
0.973763
0.940025
0.989874
0.958528
0.92055
0.978555
0.956563
0.925752
0.969315
0.967871
0.991132
0.991782
0.987445
0.990773
0.983428
0.980409
0.982629
0.98537
0.980003
0.975955
0.991194
0.992343
0.989804
0.991994
0.989988
0.99253
0.984486
0.983546
0.989956
0.989381
0.982286
0.982111
0.927327
0.912295
0.921722
0.920139
0.704205
0.693022
0.681549
0.690149
0.817399
0.827106
0.966533
0.962799
0.974689
0.974275
0.977994
0.976038
0.982834
0.98331
0.981046
0.981385
0.980595
0.98091
0.979945
0.98031
0.979963
0.981957
0.982412
0.981974
0.978001
0.977568
0.975724
0.975236
0.545595
0.541434
0.963097
0.963622
0.965892
0.96754
0.629563
0.604088
0.949325
0.953519
0.965321
0.965933
0.971426
0.969328
0.970228
0.969681
0.967748
0.9671
0.935164
0.934112
0.928569
0.93437
0.945043
0.949789
0.956673
0.955883
0.964491
0.963889
0.967107
0.966425
0.96378
0.96521
0.963807
0.963137
0.9673
0.967364
0.962049
0.961249
0.95971
0.960552
0.944735
0.943925
0.928966
0.930026
0.954015
0.950009
0.947153
0.938692
0.937522
0.909049
0.910649
0.774043
0.779951
0.650029
0.639782
0.372119
0.380575
0.356795
0.364208
0.28617
0.292084
0.632743
0.441791
0.828974
0.831825
0.820599
0.81583
0.948415
0.949417
0.939081
0.939787
0.924909
0.921649
0.942731
0.941696
0.921956
0.918578
0.918437
0.914947
0.898503
0.903085
0.899351
0.902514
0.256604
0.265141
0.954136
0.949165
0.971679
0.965587
0.94462
0.946385
0.952839
0.965583
0.941911
0.987601
0.927331
0.955475
0.972789
0.973633
0.974955
0.975668
0.97955
0.974393
0.975833
0.976755
0.947649
0.946768
0.971713
0.973022
0.952736
0.95741
0.945656
0.956552
0.958484
0.976846
0.95767
0.966922
1.04918
0.958786
0.946668
0.938996
0.749169
0.738928
0.973803
0.972276
0.965888
0.965909
0.950426
0.951281
0.895585
0.897391
0.902979
0.900462
0.927695
0.92917
0.791433
0.644042
0.911268
0.89779
0.962793
0.962528
0.95648
0.955657
0.878668
0.894055
0.804979
0.802371
0.899109
0.882394
0.884983
0.88295
0.984517
0.983946
0.98507
0.985204
0.981107
0.980985
0.982201
0.981964
0.619391
0.612956
0.603916
0.916946
0.937804
0.983801
0.983672
0.963602
0.963395
0.962404
0.962209
0.950166
0.950131
0.539901
0.541046
0.948492
0.950865
0.882598
0.883539
0.844545
0.835159
0.965336
0.882242
0.9725
0.975225
0.980233
0.970239
0.984028
0.984234
0.991657
0.992395
0.983977
0.984879
0.994562
0.984715
0.969094
0.97022
1.0183
0.947891
0.903119
0.975461
0.961059
0.974513
0.990466
0.988752
0.992949
0.972966
0.973683
0.958832
0.952384
0.923831
1.04748
1.07213
0.955587
0.948828
0.945123
0.953867
1.0252
0.974522
1.04499
0.999704
0.9473
0.970966
0.973475
0.937186
0.930378
0.926697
0.934088
0.931794
0.962293
0.960928
1.02129
0.948695
0.968788
0.975287
0.980355
0.966781
0.964296
0.989015
0.994101
0.991621
0.988826
0.990097
0.99423
0.991332
0.992617
0.982995
0.992283
0.991787
0.993507
0.971135
0.971989
0.945718
0.952982
0.96535
0.966883
0.960321
0.953314
0.944769
0.917827
0.914144
0.913745
0.916847
0.874074
0.918716
0.940126
0.927496
0.922117
0.924213
0.991803
0.993026
0.9911
0.991893
0.984899
0.981913
0.981907
0.984308
0.989729
0.991789
0.991639
0.992022
0.948458
0.947826
0.984814
0.985035
0.964536
0.965148
0.974054
0.97448
0.948413
0.947663
0.615966
0.672181
0.741501
0.728358
0.861365
0.863923
0.698159
0.918378
0.920186
0.964066
0.967707
0.959301
0.958622
0.950085
0.950693
0.970976
0.971352
0.982909
0.980367
0.983266
0.984247
0.981661
0.981977
0.981716
0.980445
0.981209
0.980335
0.980696
0.98044
0.980918
0.980669
0.981559
0.976809
0.977233
0.975637
0.976117
0.866678
0.865725
0.961761
0.961266
0.953643
0.953119
0.963352
0.926324
0.91164
0.939284
0.938405
0.969167
0.96651
0.960824
0.956518
0.971971
0.97148
0.975844
0.975916
0.970491
0.971062
0.968382
0.967764
0.968729
0.910379
0.911806
0.926209
0.924848
0.949061
0.94834
0.949212
0.950353
0.957393
0.95302
0.972207
0.97275
0.965807
0.965035
0.966396
0.964228
0.963511
0.965093
0.965705
0.966266
0.962254
0.963028
0.963453
0.964226
0.961376
0.914762
0.899427
0.922925
0.924079
0.940448
0.934695
0.944937
0.946117
0.886763
0.885049
0.519918
0.384196
0.788575
0.732817
0.74715
0.815988
0.819713
0.813073
0.809597
0.739836
0.744259
0.388363
0.577618
0.308399
0.312776
0.447428
0.452644
0.279955
0.324571
0.758162
0.756249
0.797815
0.801151
0.895985
0.894022
0.953952
0.953032
0.954476
0.953687
0.931707
0.935971
0.926807
0.93119
0.945019
0.946111
0.934784
0.93238
0.933261
0.936072
0.853957
0.85594
0.915078
0.911422
0.929441
0.931704
0.907758
0.912344
0.837387
0.840116
0.293675
0.48946
0.385134
0.975085
0.975701
1.0043
1.00486
0.96288
0.968268
0.96924
0.962856
0.935348
1.0092
0.957554
0.986719
0.863402
0.815484
0.990505
0.990278
0.991159
0.984624
0.975738
0.976358
0.998877
0.994233
0.974338
0.974946
0.979915
0.970893
0.941512
1.01175
0.966387
0.971539
0.972411
0.974564
0.949107
0.948644
0.949952
0.975969
0.969918
0.953751
0.97542
0.975314
0.980185
0.93979
0.952815
1.00331
0.990041
0.994705
0.921308
0.933197
0.941478
0.98934
0.989042
0.973126
0.977714
0.962662
0.957306
0.911689
0.894975
0.932021
0.933708
0.907296
0.908838
0.900146
0.897495
0.914234
0.912816
0.92915
0.927694
0.959962
0.964981
0.909774
0.896201
0.933455
0.92242
0.963776
0.963596
0.948659
0.943165
0.954214
0.953186
0.923423
0.919452
0.80663
0.80592
0.376899
0.374082
0.839259
0.795192
0.83509
0.79175
0.773904
0.766781
0.858574
0.854383
0.985543
0.985098
0.984679
0.984616
0.981252
0.981398
0.980478
0.980704
0.963968
0.966247
0.956919
0.955158
0.949476
0.95491
0.986018
0.985705
0.965956
0.966182
0.964066
0.964021
0.96154
0.961801
0.938155
0.938305
0.542481
0.54489
0.915416
0.910521
0.945309
0.94663
0.880697
0.88159
0.829288
0.823435
0.969022
0.969491
0.968716
0.971325
0.979117
0.975471
0.97208
0.984975
0.98557
0.989092
0.984946
0.97281
0.97104
0.994731
0.985595
0.994555
0.972573
0.972178
0.973909
0.964695
0.946474
0.94101
1.07082
0.959134
0.94579
1.00268
0.991061
0.930417
0.942184
0.999783
0.96495
0.970114
0.925001
0.928199
0.918763
0.921123
0.958449
0.911641
1.02519
0.946352
0.919739
0.976854
0.98012
0.968294
0.965546
0.98903
0.994058
0.989072
0.993344
0.991974
0.99188
0.989529
0.994022
0.992808
0.98666
0.946359
0.939631
0.967541
0.965093
0.93951
0.933838
0.91579
0.91296
0.982438
0.950177
0.937511
0.99272
0.992188
0.991167
0.992164
0.986586
0.990073
0.99068
0.991041
0.956381
0.955399
0.988951
0.991028
0.98521
0.984796
0.969135
0.968883
0.921297
0.909525
0.977333
0.977626
0.912951
0.912915
0.97406
0.97429
0.93749
0.937326
0.871651
0.89839
0.720064
0.726771
0.620964
0.716
0.705801
0.713032
0.897549
0.899376
0.964683
0.968277
0.963439
0.967125
0.94664
0.947388
0.964147
0.964563
0.967638
0.968026
0.978315
0.978776
0.9844
0.984108
0.984906
0.985778
0.982071
0.982526
0.981773
0.981431
0.980098
0.979741
0.981495
0.979958
0.978999
0.979375
0.976109
0.975657
0.976181
0.976637
0.639028
0.632126
0.882014
0.8811
0.958769
0.958316
0.965442
0.967104
0.967091
0.968761
0.911371
0.925957
0.891904
0.888921
0.94094
0.936177
0.967092
0.969736
0.957931
0.962151
0.978403
0.978306
0.970856
0.968751
0.974888
0.974766
0.971667
0.973006
0.971622
0.970822
0.970015
0.971424
0.969008
0.968415
0.95233
0.953216
0.920898
0.919614
0.93212
0.930885
0.925098
0.932014
0.963282
0.962659
0.955025
0.954115
0.964066
0.964669
0.971986
0.97255
0.96646
0.965737
0.965171
0.964427
0.962816
0.963448
0.965719
0.966447
0.963733
0.964487
0.964981
0.963159
0.938111
0.937274
0.918937
0.918207
0.927892
0.921793
0.937823
0.932499
0.951046
0.954901
0.938431
0.937201
0.917934
0.916397
0.859379
0.865483
0.907462
0.90923
0.864636
0.884516
0.807612
0.811989
0.339126
0.345463
0.748738
0.753646
0.583729
0.589569
0.57107
0.564015
0.767373
0.761003
0.637911
0.642701
0.837471
0.84039
0.856074
0.858542
0.884272
0.880994
0.895041
0.891949
0.955028
0.953613
0.952805
0.953668
0.952776
0.95361
0.937851
0.938652
0.934387
0.9314
0.943639
0.944817
0.933393
0.930871
0.939642
0.940808
0.930629
0.93195
0.938741
0.940641
0.920155
0.923413
0.920485
0.923979
0.910499
0.905871
0.901765
0.903549
0.77733
0.669694
0.807454
0.832312
0.493044
0.976071
0.972923
0.885617
0.851796
0.981247
0.982846
0.951102
0.946766
0.971709
0.94999
0.965368
0.975351
0.995134
1.00647
1.00589
0.981156
0.959354
0.943797
0.955243
0.992605
0.945027
0.947915
0.975511
0.978529
0.978982
0.971981
0.977299
0.978548
1.00414
1.00461
0.993879
1.00761
0.979685
0.974839
0.986199
0.991331
0.944894
0.992019
0.97268
0.980422
0.929409
1.01556
0.973394
0.97059
0.967561
0.977922
0.950287
0.953642
0.955945
0.968113
0.961858
0.962823
0.965141
0.962511
0.975338
1.00135
0.973196
0.916183
1.0589
1.08456
1.19518
0.99034
0.991381
0.920363
0.920658
0.94336
0.94087
0.979466
0.975147
0.988127
0.988522
0.985087
0.986961
0.810332
0.799286
0.976025
0.972413
0.913193
0.914625
0.947359
0.94843
0.932501
0.933797
0.826288
0.822162
0.821577
0.824956
0.904666
0.904133
0.911381
0.909931
0.946028
0.947071
0.865668
0.884279
0.939825
0.928646
0.957491
0.962532
0.844719
0.85375
0.882359
0.88461
0.962679
0.959131
0.964736
0.96464
0.926512
0.914221
0.944119
0.949592
0.955357
0.954433
0.944293
0.94232
0.867991
0.887508
0.721467
0.719678
0.933045
0.931796
0.841693
0.798108
0.836969
0.792887
0.857565
0.915916
0.914571
0.861159
0.857128
0.984364
0.984249
0.977641
0.978722
0.981576
0.981712
0.985893
0.986184
0.971214
0.970936
0.968934
0.971448
0.969151
0.971698
0.96122
0.958928
0.947944
0.953486
0.702358
0.567942
0.885551
0.852022
0.982693
0.982495
0.964625
0.963561
0.970082
0.970339
0.96196
0.962288
0.963181
0.962978
0.956243
0.95597
0.856154
0.855058
0.858906
0.858403
0.81994
0.815641
0.939308
0.936163
0.925674
0.928182
0.861246
0.862099
0.702601
0.803342
0.998279
0.966394
0.958521
0.977447
0.978578
0.985227
0.985735
0.992458
0.992846
0.987373
0.9486
0.947804
0.947492
0.959846
0.964954
0.946425
0.806837
0.890753
0.978056
0.98161
0.999136
1.00926
0.966524
0.956881
0.975534
0.978861
0.93893
0.954757
0.991982
0.985827
0.969394
0.974183
0.97081
0.970721
0.990113
0.993399
0.9892
0.994136
0.992223
0.991687
0.942503
0.934575
0.963084
0.959909
0.918909
0.935758
0.992383
0.992373
0.961135
0.961495
0.980337
0.979688
0.990088
0.990285
0.972894
0.973242
0.982587
0.982445
0.966054
0.966623
0.540769
0.607851
0.738252
0.73323
0.970465
0.97002
0.977908
0.976788
0.976268
0.927623
0.912457
0.936148
0.935824
0.961777
0.961857
0.937711
0.944204
0.928464
0.909598
0.873012
0.89806
0.870071
0.898687
0.624103
0.628283
0.922902
0.921116
0.9514
0.952025
0.96529
0.968838
0.959969
0.947353
0.946613
0.950284
0.949605
0.960597
0.961056
0.966672
0.96693
0.981791
0.978867
0.976199
0.97668
0.98462
0.984199
0.985282
0.985564
0.982013
0.982259
0.982038
0.982351
0.978561
0.976929
0.978975
0.97947
0.980813
0.981192
0.978831
0.979206
0.978374
0.978786
0.976669
0.976202
0.978053
0.978447
0.975715
0.664616
0.66963
0.776147
0.776544
0.864809
0.863877
0.956835
0.951584
0.953194
0.964953
0.966647
0.966707
0.968366
0.95114
0.943717
0.906745
0.920827
0.87658
0.896392
0.91855
0.930919
0.943504
0.942688
0.952783
0.948579
0.960147
0.955796
0.961493
0.95723
0.973074
0.972616
0.970284
0.968175
0.975406
0.975308
0.972204
0.973519
0.970293
0.972644
0.97317
0.969323
0.96991
0.953647
0.952845
0.927442
0.926325
0.940581
0.939596
0.946889
0.94533
0.931022
0.923842
0.93923
0.939926
0.959663
0.960352
0.965264
0.96585
0.971664
0.971429
0.968966
0.969421
0.970294
0.966603
0.965896
0.959407
0.960127
0.96446
0.96217
0.967172
0.967907
0.962379
0.961577
0.898312
0.913932
0.925786
0.925439
0.904666
0.906094
0.93609
0.931974
0.931004
0.943556
0.935745
0.941521
0.943649
0.942456
0.950461
0.951455
0.929864
0.931301
0.929667
0.933273
0.89814
0.896153
0.894494
0.893799
0.898898
0.916332
0.917798
0.900976
0.902866
0.861368
0.881871
0.767708
0.761063
0.759185
0.766907
0.59474
0.600147
0.395283
0.401424
0.702934
0.707105
0.525225
0.698282
0.903215
0.904961
0.863507
0.866124
0.804356
0.753138
0.78788
0.782168
0.869848
0.866256
0.892325
0.889212
0.918156
0.925673
0.953371
0.952388
0.959777
0.960241
0.937389
0.933336
0.937968
0.933718
0.929603
0.948569
0.947646
0.932003
0.929376
0.944754
0.943751
0.934857
0.933632
0.919747
0.920504
0.922688
0.92624
0.915873
0.911237
0.901123
0.896458
0.895765
0.90003
0.844946
0.842408
0.823274
0.846129
0.812215
0.836369
0.663183
0.669634
0.972912
0.982792
0.985041
0.925006
0.9229
0.978266
0.973619
0.973151
0.983129
0.97239
0.952041
0.972775
0.963975
0.790093
0.938489
0.932266
0.937203
0.972165
0.9373
0.966363
0.966245
0.997694
1.00029
0.974814
0.974591
0.992068
0.993869
0.975041
0.975652
0.977585
0.979406
0.97433
0.975272
0.993016
0.993818
0.998882
0.998812
1.0038
0.993711
1.00716
1.00114
0.995077
0.981539
0.98186
0.983019
0.981046
0.97186
0.988166
0.977508
0.984746
0.979989
0.97208
0.939024
0.941035
0.983709
0.927454
0.961032
0.956695
0.966632
0.977735
0.977706
0.970166
0.970519
0.947531
0.964988
0.968158
0.966914
0.951859
0.965493
0.97155
0.944872
0.713603
0.801383
1.18618
0.962172
0.959225
0.945674
0.939546
0.944157
0.947549
0.941751
0.959067
0.949381
0.9891
0.98742
0.981492
0.977759
0.987719
0.957079
0.95617
0.654207
0.659075
0.972623
0.976288
0.965633
0.966239
0.951815
0.9547
0.949488
0.947219
0.933656
0.93238
0.933749
0.932551
0.88309
0.885119
0.796031
0.791398
0.893856
0.890923
0.903954
0.905753
0.908052
0.90962
0.929015
0.927739
0.943872
0.942764
0.945512
0.944409
0.821583
0.798164
0.651867
0.92192
0.934157
0.968638
0.9666
0.966662
0.553539
0.556521
0.88005
0.961763
0.95825
0.947703
0.942183
0.953828
0.950713
0.89248
0.876815
0.934432
0.931497
0.906626
0.91294
0.838194
0.840092
0.381695
0.53561
0.566461
0.548445
0.938768
0.939741
0.864276
0.866385
0.860039
0.862148
0.903972
0.901449
0.874147
0.876361
0.984085
0.983974
0.986274
0.985978
0.901271
0.898033
0.97889
0.977817
0.981184
0.981281
0.981819
0.981936
0.984472
0.984162
0.974405
0.974129
0.968846
0.97134
0.969081
0.971606
0.959462
0.961399
0.955661
0.95728
0.933154
0.908539
0.679568
0.580024
0.740861
0.550836
0.769567
0.542232
0.98972
0.989253
0.983919
0.98399
0.978359
0.978454
0.967626
0.967917
0.967963
0.967752
0.960389
0.960475
0.962059
0.962328
0.956595
0.956646
0.937379
0.937849
0.887165
0.886937
0.884474
0.885263
0.81198
0.807193
0.941558
0.945574
0.952556
0.953925
0.906129
0.903816
0.604999
0.938296
0.951306
0.871024
0.925266
0.933665
0.974024
0.975221
0.9617
0.963319
0.98591
0.986263
0.978341
0.98635
0.989724
0.987281
0.985977
0.953952
0.94571
0.971078
0.968791
0.960274
0.972788
0.725087
1.00493
0.959828
0.947176
0.965291
0.972572
1.0167
0.905536
0.938527
0.973568
0.978688
0.99106
0.992927
0.972401
0.993638
0.989522
0.932758
0.926449
0.96395
0.963505
0.977388
0.976559
0.989005
0.989188
0.971744
0.972136
0.984557
0.984966
0.969589
0.96931
0.963827
0.963021
0.540112
0.590591
0.697302
0.898086
0.852704
0.574245
0.618291
0.97182
0.971401
0.975043
0.974675
0.980038
0.980327
0.927902
0.912596
0.936466
0.967588
0.967332
0.975136
0.975328
0.93869
0.942361
0.945253
0.910403
0.928916
0.739331
0.745182
0.662558
0.616195
0.733172
0.835306
0.898219
0.924753
0.93061
0.932498
0.97566
0.978005
0.960626
0.96127
0.948079
0.950835
0.950168
0.957291
0.956726
0.963748
0.96015
0.973077
0.973262
0.970633
0.967272
0.977098
0.976057
0.974906
0.982899
0.982586
0.984946
0.984763
0.984151
0.985457
0.985867
0.981753
0.981436
0.980023
0.979186
0.981025
0.980548
0.980316
0.97995
0.979925
0.980267
0.977954
0.976587
0.977047
0.97655
0.977648
0.889273
0.890029
0.901902
0.90012
0.615112
0.614353
0.882927
0.883839
0.953492
0.953107
0.919542
0.919203
0.964422
0.966162
0.962884
0.962325
0.968849
0.970595
0.943124
0.950601
0.935139
0.935486
0.786278
0.661969
0.877626
0.894848
0.619406
0.636825
0.758261
0.856495
0.964728
0.967434
0.947821
0.952037
0.940027
0.935031
0.938384
0.942698
0.967665
0.9703
0.959462
0.955066
0.976993
0.977522
0.973608
0.973165
0.973292
0.973109
0.971046
0.973123
0.974264
0.974819
0.974714
0.975211
0.971957
0.97057
0.95937
0.958684
0.948943
0.948081
0.91834
0.908959
0.913234
0.914682
0.938826
0.943001
0.943976
0.93898
0.930077
0.92261
0.936656
0.940658
0.969793
0.969236
0.967996
0.967435
0.97087
0.971442
0.971089
0.971597
0.96696
0.967545
0.970593
0.969441
0.965998
0.966689
0.962445
0.961737
0.964681
0.963925
0.955614
0.956343
0.856506
0.860544
0.872888
0.91323
0.912049
0.907537
0.917059
0.94736
0.952024
0.941199
0.939294
0.933576
0.895244
0.893696
0.936933
0.9379
0.949458
0.931812
0.930376
0.925279
0.922822
0.814424
0.817232
0.919623
0.917983