/*--------------------------------*- C++ -*----------------------------------*\
  =========                 |
  \\      /  F ield         | OpenFOAM: The Open Source CFD Toolbox
   \\    /   O peration     | Website:  https://openfoam.org
    \\  /    A nd           | Version:  7
     \\/     M anipulation  |
\*---------------------------------------------------------------------------*/
FoamFile
{
    version     2.0;
    format      ascii;
    class       volScalarField;
    location    "2160";
    object      T;
}
// * * * * * * * * * * * * * * * * * * * * * * * * * * * * * * * * * * * * * //

dimensions      [0 0 0 1 0 0 0];

internalField   nonuniform List<scalar> 
238806
(
2.54388e-07
2.60933e-07
4.17402e-07
4.33241e-07
4.03599e-07
2.99236e-07
2.97329e-07
2.54517e-07
2.48664e-07
4.40503e-07
4.50938e-07
3.79019e-07
6.40883e-07
6.54703e-07
7.46918e-07
6.92757e-07
4.60527e-07
4.7499e-07
2.18196e-07
2.17497e-07
5.76544e-07
6.0562e-07
6.95973e-07
7.0912e-07
7.43645e-07
4.38512e-07
4.57101e-07
4.629e-07
5.0213e-07
4.94732e-07
2.19133e-07
2.17208e-07
5.80953e-07
5.42827e-07
4.63948e-07
4.38437e-07
0.000583319
0.000587091
4.22883e-07
4.09161e-07
4.29025e-07
4.64611e-07
2.49485e-07
2.47805e-07
2.19592e-07
2.20461e-07
7.69437e-07
7.13892e-07
5.06911e-07
4.73313e-07
3.39336e-07
3.31176e-07
6.05971e-07
6.19769e-07
7.85318e-05
7.73303e-05
4.29109e-07
4.12878e-07
4.12623e-07
3.83559e-07
3.96233e-07
4.05853e-07
3.96516e-07
4.01871e-07
3.8517e-07
2.21241e-07
2.21898e-07
2.43433e-07
2.48326e-07
2.83469e-07
2.92418e-07
5.83587e-07
6.24021e-07
4.92237e-07
5.2576e-07
3.82888e-07
3.96894e-07
4.6675e-07
4.41269e-07
1.33456e-05
1.32709e-05
3.97719e-07
3.73732e-07
2.76163e-07
2.72885e-07
3.45508e-07
3.5846e-07
5.18338e-07
5.00643e-07
4.834e-07
4.9907e-07
3.66804e-07
3.81002e-07
2.56299e-07
2.58455e-07
3.90255e-07
3.74782e-07
3.99231e-07
4.24901e-07
4.54906e-07
2.22985e-07
2.40825e-07
2.44185e-07
2.49032e-07
2.47187e-07
8.87625e-07
9.31353e-07
5.34424e-07
5.68702e-07
5.62322e-07
6.01783e-07
3.97826e-07
3.80677e-07
3.46506e-07
3.5479e-07
6.30323e-07
5.95478e-07
0.000673731
0.000672209
0.000676578
5.87336e-07
6.26712e-07
2.8453e-07
2.88668e-07
2.92342e-07
2.90593e-07
7.973e-07
8.04638e-07
5.54085e-07
5.44588e-07
3.95251e-07
5.02671e-07
5.19679e-07
5.02635e-07
3.68498e-07
3.52726e-07
2.57058e-07
2.54479e-07
6.38618e-07
6.68592e-07
6.53912e-07
6.36294e-07
3.74931e-07
2.33194e-07
2.36647e-07
2.32535e-07
2.35254e-07
2.49508e-07
2.45785e-07
2.69258e-07
2.75521e-07
3.07798e-07
3.15538e-07
8.67241e-07
9.16631e-07
6.09639e-07
6.4526e-07
6.06446e-07
6.47636e-07
6.06064e-07
6.35576e-07
4.0153e-07
4.15807e-07
3.27874e-07
3.33655e-07
4.68074e-07
4.42303e-07
1.01194e-05
1.01771e-05
0.000579019
0.000582758
4.15236e-07
3.91808e-07
1.95812e-06
1.98445e-06
1.98151e-06
2.78408e-07
2.82121e-07
3.69142e-07
3.77383e-07
8.68067e-07
8.6864e-07
5.41909e-07
4.95954e-07
4.76183e-07
4.81346e-07
2.74953e-07
2.7683e-07
2.53779e-07
2.51606e-07
2.50022e-07
2.48282e-07
2.78437e-07
2.82849e-07
4.11995e-07
3.91801e-07
3.87431e-07
5.43374e-07
5.39276e-07
4.10131e-07
4.19253e-07
2.20804e-07
2.19334e-07
2.34782e-07
2.38844e-07
2.38789e-07
2.43017e-07
3.18593e-07
3.32562e-07
2.84019e-07
2.77397e-07
1.37004e-06
1.34929e-06
1.00346e-06
1.05754e-06
7.9376e-07
7.44724e-07
6.64815e-07
6.21419e-07
5.46405e-07
5.12582e-07
3.96164e-07
4.14837e-07
3.64792e-07
3.50687e-07
3.48454e-07
3.4284e-07
4.64352e-07
4.38731e-07
4.84438e-06
4.60283e-06
3.52173e-05
3.34612e-05
3.09624e-05
2.94252e-05
0.000175693
0.000184641
2.43567e-07
2.34186e-07
2.87837e-07
2.7036e-07
7.12106e-07
7.52721e-07
2.65814e-06
2.75386e-06
2.91284e-07
2.95585e-07
3.49715e-07
3.42515e-07
3.73774e-07
3.88708e-07
4.70392e-07
4.90055e-07
6.78926e-07
6.6796e-07
4.44024e-07
4.25016e-07
2.57586e-07
2.55042e-07
2.55622e-07
2.53252e-07
2.54231e-07
2.51984e-07
4.46866e-07
4.44887e-07
2.85939e-07
2.80413e-07
4.11893e-07
4.21042e-07
6.02389e-07
6.42723e-07
3.62204e-07
5.5663e-07
3.23977e-07
3.34763e-07
3.14512e-07
2.21785e-07
2.23522e-07
2.25969e-07
2.28199e-07
2.39459e-07
2.36434e-07
2.65983e-07
2.57961e-07
2.59857e-07
2.59602e-07
2.77956e-07
2.81337e-07
1.04755e-06
1.07958e-06
8.76255e-07
8.48507e-07
1.0401e-06
1.09382e-06
9.04443e-07
9.59555e-07
6.92257e-07
7.40338e-07
6.44212e-07
6.90044e-07
6.3085e-07
6.72605e-07
6.49566e-07
6.69215e-07
4.56017e-07
4.82403e-07
3.81606e-07
3.90142e-07
3.65962e-07
3.79857e-07
6.22976e-07
6.18887e-07
4.95476e-07
4.91683e-07
4.99784e-07
5.26992e-07
9.21971e-06
8.78363e-06
6.23482e-06
5.9264e-06
1.13088e-05
1.18842e-05
1.3953e-05
1.40299e-05
3.89093e-05
3.85719e-05
0.000185266
0.000176234
0.000680146
4.33342e-07
4.11167e-07
6.30099e-07
5.92847e-07
6.06626e-05
6.39792e-05
1.04506e-06
9.9761e-07
2.01405e-06
2.06046e-06
3.00902e-07
3.09106e-07
2.8648e-07
2.84799e-07
3.63045e-07
3.55293e-07
4.03727e-07
4.23656e-07
5.80207e-07
5.76241e-07
5.90853e-07
6.05792e-07
3.05089e-07
2.93669e-07
2.58952e-07
2.56546e-07
2.62687e-07
2.6531e-07
2.65238e-07
2.51371e-07
2.53525e-07
4.0904e-07
4.07046e-07
3.25983e-07
3.14657e-07
2.90799e-07
2.84808e-07
4.63386e-07
4.89397e-07
7.06532e-07
3.10585e-07
3.25012e-07
4.65307e-07
4.35437e-07
3.92287e-07
3.7491e-07
3.7672e-07
3.90898e-07
2.53898e-07
2.60342e-07
2.24146e-07
2.2249e-07
2.26442e-07
2.27485e-07
2.27872e-07
2.3107e-07
2.31136e-07
2.34778e-07
4.00803e-07
3.82719e-07
3.48744e-07
3.34177e-07
2.5357e-07
2.55892e-07
2.48586e-07
2.51348e-07
2.7626e-07
2.76262e-07
2.86486e-07
2.93506e-07
3.2561e-07
3.38524e-07
1.29325e-06
1.31546e-06
8.08424e-07
7.71202e-07
1.07872e-06
1.13209e-06
9.35794e-07
9.90599e-07
8.18503e-07
8.737e-07
7.40026e-07
7.93789e-07
6.56829e-07
6.99058e-07
6.33585e-07
6.15755e-07
4.76756e-07
5.03777e-07
3.71664e-07
3.63265e-07
4.36027e-07
4.13198e-07
5.23147e-07
4.94054e-07
5.24588e-07
5.20767e-07
4.74411e-07
7.31158e-06
6.98252e-06
4.86193e-06
4.62071e-06
6.84262e-06
7.19683e-06
8.11413e-06
7.70556e-06
3.34142e-05
3.51807e-05
2.7524e-05
2.63465e-05
3.50127e-05
3.67461e-05
0.000380981
0.00037883
5.03753e-05
4.80116e-05
3.3733e-07
3.26213e-07
3.41593e-07
6.61e-07
6.7743e-07
6.61218e-07
6.82641e-07
6.71736e-07
6.57994e-07
7.45385e-05
7.33992e-05
1.72472e-06
1.79074e-06
1.91525e-06
1.95605e-06
2.01278e-06
2.01481e-06
1.07185e-06
1.06461e-06
2.89772e-07
2.8493e-07
2.98898e-07
3.04632e-07
3.26489e-07
3.24297e-07
3.59652e-07
4.49514e-07
4.46501e-07
4.68989e-07
6.15474e-07
6.55428e-07
6.52357e-07
6.41228e-07
2.65039e-07
2.66532e-07
2.62873e-07
2.59084e-07
2.61402e-07
2.58192e-07
2.60064e-07
2.50937e-07
2.491e-07
4.90871e-07
4.88862e-07
4.13763e-07
4.32003e-07
3.76881e-07
3.92299e-07
2.85474e-07
2.91636e-07
4.30708e-07
4.07578e-07
5.19331e-07
4.99921e-07
5.15132e-07
6.87097e-07
5.79712e-07
5.76141e-07
5.91465e-07
6.06904e-07
5.19099e-07
3.92357e-07
2.76767e-07
2.68247e-07
2.3788e-07
2.4247e-07
2.24564e-07
2.26651e-07
2.29062e-07
2.25817e-07
2.2069e-07
2.22524e-07
2.31541e-07
2.29071e-07
3.65077e-07
3.81781e-07
3.05803e-07
3.19159e-07
2.77249e-07
2.68141e-07
2.67575e-07
2.6744e-07
2.55399e-07
2.60895e-07
2.96897e-07
2.97179e-07
2.91206e-07
2.87697e-07
3.28104e-07
3.20131e-07
1.47817e-06
1.44729e-06
1.0948e-06
1.0352e-06
7.04891e-07
6.68523e-07
8.92516e-07
8.48904e-07
9.884e-07
9.391e-07
8.83537e-07
8.34131e-07
9.6871e-07
1.02317e-06
8.46046e-07
9.01418e-07
7.65751e-07
8.1983e-07
6.18098e-07
5.82893e-07
6.84381e-07
7.26974e-07
5.38786e-07
5.29306e-07
5.79976e-07
5.57301e-07
4.99084e-07
5.26665e-07
4.43592e-07
4.18496e-07
4.47186e-07
4.56164e-07
3.39104e-07
3.3744e-07
3.97307e-07
4.12665e-07
4.29802e-07
4.50945e-07
4.91228e-07
5.20297e-07
5.56011e-07
5.86895e-07
1.47535e-05
1.54872e-05
8.77416e-06
9.20871e-06
6.24867e-06
5.93833e-06
1.06514e-05
1.07117e-05
1.19467e-05
1.13662e-05
1.66574e-05
1.74915e-05
2.99865e-05
3.01951e-05
2.63548e-05
2.6229e-05
3.7063e-05
3.53061e-05
0.000416253
0.000432062
0.000599345
0.000603306
9.51597e-05
9.46794e-05
0.000197544
0.000196847
4.23241e-07
4.54199e-07
2.51304e-07
2.54876e-07
7.37307e-07
7.55903e-07
4.41353e-07
4.69985e-07
4.74585e-07
4.41016e-07
6.42603e-07
6.05556e-07
6.22808e-05
6.13617e-05
0.00037742
0.000380047
3.23835e-06
3.26445e-06
2.44524e-06
2.53065e-06
2.41611e-06
2.35108e-06
2.04212e-06
2.07533e-06
2.05253e-06
1.97598e-06
3.09064e-07
3.17697e-07
2.86851e-07
2.80233e-07
2.73895e-07
2.69296e-07
3.0242e-07
2.94987e-07
3.16261e-07
3.14109e-07
3.73292e-07
3.59043e-07
4.08191e-07
4.27977e-07
9.38284e-07
9.3403e-07
5.28993e-07
5.49849e-07
5.45066e-07
5.98615e-07
6.5836e-07
3.33675e-07
3.3641e-07
2.70818e-07
2.74298e-07
2.61e-07
2.63768e-07
2.61668e-07
2.63676e-07
2.52199e-07
2.50203e-07
5.1533e-07
5.13294e-07
3.88599e-07
4.04245e-07
4.27206e-07
4.25226e-07
2.979e-07
2.91789e-07
2.79645e-07
2.74444e-07
5.02813e-07
5.29728e-07
5.24756e-07
4.35389e-07
4.38924e-07
4.53124e-07
3.57629e-07
3.43321e-07
3.35907e-07
3.39133e-07
3.52944e-07
4.52296e-07
4.83623e-07
6.44439e-07
3.56482e-07
2.60441e-07
2.67503e-07
2.25575e-07
2.27673e-07
2.24497e-07
2.2365e-07
2.24905e-07
2.27667e-07
3.51861e-07
3.52173e-07
3.67691e-07
3.48219e-07
3.64916e-07
2.84301e-07
2.75225e-07
2.63562e-07
2.72114e-07
2.59928e-07
2.52383e-07
2.57613e-07
2.54663e-07
2.68025e-07
2.7581e-07
3.14382e-07
3.10689e-07
2.86005e-07
2.86143e-07
3.02515e-07
3.136e-07
1.13737e-06
1.10615e-06
1.28351e-06
1.31133e-06
1.31488e-06
1.30144e-06
1.05713e-06
1.02927e-06
7.56527e-07
7.13653e-07
7.37452e-07
7.00772e-07
8.55686e-07
8.12216e-07
9.77979e-07
1.02722e-06
8.52077e-07
8.02718e-07
8.74567e-07
9.29901e-07
7.91815e-07
8.46533e-07
5.9258e-07
5.57838e-07
5.99942e-07
5.83023e-07
6.37541e-07
6.67461e-07
4.33016e-07
4.53264e-07
4.3671e-07
4.62466e-07
4.21938e-07
4.36526e-07
3.728e-07
3.75849e-07
3.98775e-07
3.81764e-07
3.86291e-07
4.24884e-07
4.01236e-07
5.51092e-07
5.53912e-07
4.85787e-07
4.60151e-07
5.73121e-07
5.42206e-07
1.01534e-06
9.72276e-07
1.47697e-05
1.47892e-05
1.01127e-05
1.06152e-05
9.79112e-06
9.72744e-06
5.31954e-06
5.59427e-06
7.22042e-06
6.86369e-06
8.14932e-06
7.73716e-06
3.33809e-05
3.51605e-05
2.04424e-05
2.05261e-05
1.8934e-05
1.88267e-05
2.54652e-05
2.43457e-05
2.49663e-05
2.38548e-05
3.20574e-05
3.05941e-05
3.17849e-05
3.33624e-05
0.000134036
0.000127656
0.000392646
0.000376552
0.000463368
0.000478774
0.000591564
0.000595422
0.000613564
0.000617742
9.9905e-05
0.000100254
0.000672571
0.000666962
0.000671579
4.80451e-07
4.71111e-07
2.49457e-07
2.58032e-07
2.66979e-07
2.24628e-07
2.32976e-07
2.0937e-07
2.02865e-07
6.67068e-07
6.82345e-07
5.07797e-07
4.88282e-07
4.85536e-07
4.58176e-07
3.41394e-07
3.52228e-07
3.63466e-07
3.5124e-07
1.34416e-06
1.46095e-06
0.000126129
0.000132276
7.29216e-05
7.18282e-05
0.00010705
0.000105405
0.000262574
0.000260255
2.36376e-06
2.2549e-06
1.60155e-06
1.6617e-06
2.36052e-06
2.44708e-06
2.62118e-06
2.7174e-06
2.22061e-06
2.2795e-06
2.01047e-06
2.01289e-06
2.03727e-06
1.94673e-06
1.97936e-06
3.63721e-07
3.50992e-07
2.92566e-07
2.9907e-07
2.81762e-07
2.77457e-07
2.79823e-07
2.95625e-07
2.91404e-07
2.88465e-07
3.23819e-07
3.16272e-07
3.60869e-07
3.63706e-07
3.46208e-07
3.33749e-07
4.49747e-07
4.29898e-07
8.74439e-07
8.6667e-07
4.96798e-07
5.17131e-07
5.74078e-07
5.25295e-07
3.48846e-07
3.54915e-07
2.69228e-07
2.66251e-07
2.69415e-07
2.7032e-07
2.61505e-07
2.64719e-07
2.53029e-07
2.55419e-07
4.6808e-07
4.66082e-07
4.21229e-07
4.39643e-07
3.47151e-07
3.32968e-07
2.98267e-07
3.05352e-07
2.7522e-07
2.70494e-07
4.67311e-07
4.42623e-07
4.44787e-07
7.16536e-07
7.52207e-07
6.9659e-07
5.10428e-07
5.25368e-07
5.80324e-07
5.99089e-07
6.14544e-07
6.61168e-07
3.46479e-07
3.26288e-07
4.38484e-07
4.13962e-07
2.29301e-07
2.25369e-07
2.31252e-07
2.34146e-07
2.29215e-07
2.31953e-07
2.25217e-07
2.23191e-07
3.12057e-07
3.17125e-07
3.34884e-07
2.94035e-07
2.8354e-07
2.60792e-07
2.68909e-07
2.46539e-07
2.47002e-07
2.67945e-07
2.61976e-07
3.09029e-07
3.0944e-07
3.0401e-07
2.96597e-07
1.39567e-06
1.42721e-06
1.41901e-06
1.39329e-06
1.24105e-06
1.25547e-06
9.64858e-07
9.93104e-07
8.22743e-07
6.74178e-07
6.38166e-07
8.09606e-07
8.46999e-07
9.51565e-07
9.02212e-07
7.72942e-07
8.22182e-07
7.14982e-07
6.67777e-07
5.09436e-07
5.00123e-07
7.06547e-07
7.37239e-07
5.87836e-07
6.10988e-07
5.01993e-07
5.23761e-07
4.33237e-07
4.13666e-07
4.44175e-07
4.59099e-07
4.18066e-07
4.14809e-07
3.25833e-07
3.23015e-07
3.22499e-07
3.24144e-07
3.71515e-07
3.82008e-07
3.79318e-07
5.83609e-07
5.86242e-07
4.75196e-07
4.4937e-07
5.6267e-07
5.31747e-07
1.54614e-05
1.54741e-05
1.55028e-05
1.55224e-05
1.1184e-05
1.12012e-05
9.66444e-06
9.67698e-06
5.27827e-06
5.03751e-06
5.60775e-06
5.33178e-06
7.24384e-06
6.88443e-06
1.00645e-05
1.05932e-05
1.08122e-05
1.07597e-05
1.74411e-05
1.74681e-05
2.14541e-05
2.15439e-05
1.63575e-05
1.62617e-05
4.00871e-05
4.20703e-05
2.73018e-05
2.74636e-05
2.85883e-05
2.99229e-05
2.39738e-05
2.28982e-05
2.47099e-05
2.36079e-05
3.85361e-05
4.04606e-05
3.15249e-05
3.00411e-05
3.36322e-05
3.20304e-05
5.64606e-05
5.68202e-05
0.000395107
0.000397434
0.000482071
0.000466479
0.0005875
0.000591313
0.000540709
0.00052337
0.00018646
0.000195511
0.000100514
9.5493e-05
0.000198922
0.000198236
0.000260283
0.000259113
2.9679e-07
2.83308e-07
2.80675e-07
4.32614e-07
4.63899e-07
3.03505e-07
3.20321e-07
2.93881e-07
2.72235e-07
2.30757e-06
2.45312e-06
2.43636e-07
2.53669e-07
7.75948e-07
7.95251e-07
6.99031e-07
7.16613e-07
4.249e-07
4.54992e-07
4.01965e-07
4.18504e-07
4.08569e-07
3.99518e-07
1.04237e-06
9.76704e-07
1.59483e-06
1.58483e-06
0.000232925
0.000239412
5.7357e-05
5.65034e-05
7.56868e-05
7.68432e-05
7.07426e-05
6.96634e-05
0.00030891
0.000305992
0.000211966
0.000209082
9.8783e-07
9.41006e-07
5.28603e-06
5.26583e-06
3.20856e-06
3.15642e-06
1.15128e-06
1.09678e-06
1.84089e-06
1.77524e-06
2.56819e-06
2.48337e-06
2.18781e-06
2.24726e-06
2.1732e-06
2.11789e-06
2.00005e-06
2.04724e-06
2.0708e-06
1.08616e-06
2.94087e-07
3.01549e-07
2.6859e-07
2.7305e-07
3.07154e-07
3.13892e-07
3.20293e-07
3.10831e-07
3.50215e-07
3.47635e-07
4.12149e-07
3.9424e-07
4.07254e-07
3.88109e-07
9.29316e-07
9.28387e-07
9.75036e-07
7.94857e-07
8.11951e-07
4.36203e-07
4.54316e-07
6.15667e-07
6.32148e-07
3.22946e-07
3.14906e-07
3.17516e-07
3.23433e-07
2.81653e-07
2.84387e-07
2.67593e-07
2.55957e-07
2.58618e-07
2.65739e-07
2.67871e-07
4.44165e-07
4.61591e-07
4.8096e-07
4.73036e-07
3.96954e-07
3.81491e-07
3.0636e-07
3.15919e-07
3.68481e-07
3.60188e-07
3.50116e-07
4.19669e-07
4.01403e-07
4.80045e-07
4.53477e-07
5.81604e-07
5.50345e-07
5.5596e-07
4.41357e-07
4.23079e-07
4.48526e-07
4.78153e-07
4.90365e-07
5.44846e-07
5.61711e-07
6.30454e-07
6.76801e-07
3.69533e-07
2.5569e-07
2.57022e-07
2.3488e-07
2.33421e-07
2.3013e-07
2.27678e-07
2.29002e-07
2.28903e-07
2.92353e-07
2.88199e-07
3.25091e-07
3.36921e-07
2.96404e-07
2.85881e-07
2.74223e-07
2.66087e-07
2.72512e-07
2.6926e-07
2.53025e-07
2.52656e-07
2.98577e-07
3.02191e-07
1.28515e-06
1.3184e-06
1.1721e-06
1.19778e-06
1.33991e-06
1.3666e-06
1.29069e-06
1.2808e-06
9.04204e-07
9.31935e-07
9.03084e-07
8.75061e-07
7.44672e-07
7.87784e-07
7.71939e-07
7.34968e-07
7.66519e-07
7.17853e-07
6.25604e-07
6.34671e-07
6.9153e-07
7.1656e-07
5.50919e-07
5.28695e-07
5.23124e-07
5.51246e-07
4.32324e-07
4.23498e-07
4.68262e-07
4.83517e-07
3.92643e-07
3.95342e-07
3.38019e-07
3.40978e-07
3.558e-07
3.54008e-07
3.56272e-07
3.66853e-07
5.84276e-07
5.8822e-07
6.17965e-07
6.20189e-07
5.13132e-07
5.02627e-07
1.47397e-05
1.47261e-05
1.17451e-05
1.17639e-05
1.06668e-05
1.0159e-05
7.2159e-06
6.85852e-06
9.24469e-06
9.17847e-06
4.91293e-06
4.87186e-06
5.06881e-06
5.05767e-06
5.88285e-06
6.18645e-06
6.52484e-06
6.50608e-06
8.18836e-06
7.77282e-06
1.03823e-05
9.86972e-06
3.35226e-05
3.52071e-05
1.66356e-05
1.66103e-05
1.55774e-05
1.63652e-05
1.52994e-05
1.52088e-05
1.77232e-05
1.76162e-05
1.90413e-05
3.36067e-05
3.19498e-05
3.03636e-05
2.88667e-05
2.70945e-05
2.84564e-05
2.97854e-05
2.40924e-05
2.30133e-05
2.27832e-05
2.2666e-05
2.49491e-05
2.48191e-05
2.60846e-05
2.74172e-05
3.74462e-05
3.57014e-05
3.18029e-05
3.03365e-05
3.39011e-05
3.22802e-05
5.48569e-05
5.22551e-05
4.37919e-05
4.35762e-05
0.000367433
0.000382433
0.000352917
0.000368521
0.000450739
0.000447782
0.000560414
0.000571547
0.000595511
0.00059942
0.000560982
0.000574479
0.000186012
0.000194981
8.75361e-05
8.72727e-05
0.000137417
0.000137418
0.000219557
0.000220394
0.000207073
0.000207868
0.000358396
0.000357466
0.000666438
0.000666028
3.16697e-07
2.98363e-07
3.9486e-07
4.05118e-07
2.89833e-07
3.02632e-07
3.4564e-07
3.62792e-07
2.68286e-07
2.7398e-07
2.88008e-07
5.28731e-07
5.18334e-07
1.9149e-07
1.87701e-07
7.35751e-07
7.69595e-07
7.53312e-07
6.45468e-07
6.30545e-07
4.86622e-07
5.18335e-07
3.3102e-07
3.31383e-07
3.21998e-07
3.16934e-07
3.79648e-07
3.76793e-07
4.41799e-07
1.36249e-06
1.33268e-06
1.47131e-06
1.35465e-06
0.00010878
0.00010724
0.000277636
0.000279841
0.000110021
0.000111225
6.88021e-05
6.7874e-05
7.97454e-05
8.09678e-05
0.000299034
0.000295649
0.00021873
0.00022173
1.31124e-06
1.24403e-06
1.11729e-06
1.06468e-06
5.02483e-06
5.04132e-06
4.42082e-06
4.23807e-06
3.6964e-06
3.67854e-06
3.28526e-06
3.30055e-06
1.71251e-06
1.65256e-06
2.58116e-06
2.67786e-06
2.76658e-06
2.85961e-06
2.16294e-06
2.22292e-06
2.28916e-06
2.23009e-06
1.97149e-06
1.93331e-06
3.24577e-07
3.34722e-07
3.17812e-07
3.27901e-07
2.75704e-07
2.70613e-07
2.82803e-07
2.77675e-07
3.2635e-07
3.34671e-07
3.37807e-07
3.35459e-07
3.7779e-07
3.60984e-07
3.89123e-07
3.72697e-07
7.21977e-07
7.24028e-07
7.65541e-07
4.80166e-07
4.88614e-07
4.60927e-07
4.75545e-07
5.68292e-07
5.88321e-07
3.26669e-07
3.38731e-07
2.72325e-07
2.78085e-07
2.59735e-07
2.56827e-07
5.28553e-07
5.20411e-07
4.51748e-07
4.5953e-07
2.70982e-07
2.67373e-07
3.11165e-07
3.04297e-07
2.91793e-07
2.98681e-07
5.21161e-07
5.54701e-07
5.38763e-07
4.41503e-07
4.53328e-07
4.00832e-07
3.85559e-07
4.88346e-07
4.76086e-07
4.62332e-07
4.2017e-07
6.01312e-07
5.97683e-07
1.36942e-06
1.35647e-06
4.05222e-07
3.84645e-07
4.55691e-07
4.96584e-07
4.6656e-07
6.14171e-07
6.36084e-07
6.52436e-07
5.73779e-07
5.89011e-07
2.49906e-07
2.45481e-07
2.47001e-07
2.50113e-07
2.309e-07
2.29668e-07
2.19087e-07
2.17576e-07
2.18712e-07
2.36506e-07
2.36772e-07
2.29423e-07
2.30608e-07
2.81676e-07
2.78017e-07
3.22588e-07
3.11596e-07
3.20833e-07
3.08221e-07
2.74738e-07
2.84497e-07
2.61525e-07
2.64632e-07
1.22788e-06
1.26203e-06
1.46132e-06
1.5117e-06
1.22503e-06
1.25408e-06
1.09987e-06
1.12387e-06
1.12135e-06
1.17193e-06
1.17062e-06
1.15149e-06
9.55479e-07
9.76959e-07
9.23989e-07
9.34813e-07
7.77495e-07
8.20796e-07
6.01916e-07
5.92253e-07
6.7905e-07
6.54732e-07
6.70991e-07
7.0132e-07
4.9847e-07
4.77167e-07
5.48911e-07
5.77529e-07
4.10331e-07
4.01652e-07
3.92838e-07
3.95831e-07
3.54569e-07
3.57602e-07
3.41692e-07
3.52279e-07
5.51616e-07
5.55484e-07
4.34657e-06
4.33906e-06
1.23923e-05
1.23742e-05
1.27094e-05
1.33429e-05
1.00938e-05
1.05941e-05
8.7643e-06
9.1965e-06
6.83908e-06
7.20987e-06
1.27655e-05
1.28382e-05
7.25388e-06
7.63747e-06
5.45884e-06
5.47952e-06
6.33797e-06
5.98738e-06
5.62151e-06
5.34501e-06
7.29149e-06
6.9256e-06
6.20315e-06
5.89783e-06
6.54314e-06
8.23293e-06
7.81454e-06
8.6238e-06
7.56958e-06
7.96158e-06
9.73639e-06
1.02359e-05
4.18654e-05
4.39736e-05
3.89556e-05
3.70482e-05
2.47301e-05
2.47661e-05
1.81537e-05
1.81048e-05
1.37058e-05
1.3637e-05
1.4106e-05
1.342e-05
1.94695e-05
1.95751e-05
1.68775e-05
1.67755e-05
2.05104e-05
2.03926e-05
3.49342e-05
3.66874e-05
2.86925e-05
2.84646e-05
2.3251e-05
2.313e-05
2.62375e-05
2.74347e-05
2.37332e-05
2.48412e-05
2.15327e-05
2.1413e-05
2.75844e-05
2.77426e-05
3.54823e-05
3.72188e-05
3.30849e-05
3.33541e-05
2.88143e-05
3.02698e-05
3.92352e-05
3.73691e-05
0.000100601
0.000105809
4.67189e-05
4.45269e-05
4.81972e-05
4.8418e-05
4.39826e-05
0.000151303
0.000158687
0.000512627
0.000494476
0.000387404
0.000371623
0.00049412
0.000478057
0.000488054
0.00047217
0.000519123
0.000503772
0.000575418
0.000564136
0.000592317
0.000588576
0.000580831
0.000566989
0.000610174
0.000614298
5.04307e-05
4.80502e-05
0.000136897
0.000137282
0.000169865
0.000170414
0.000151238
0.000158999
0.000228961
0.00023001
0.000208642
0.000209397
0.000329812
0.000328504
0.000531371
0.000530544
0.000676697
0.000679477
1.00084e-06
9.88149e-07
4.39328e-07
4.13331e-07
4.27256e-07
3.70358e-07
3.80846e-07
3.50801e-07
3.59089e-07
3.67141e-07
3.16514e-07
2.39982e-07
7.50558e-07
7.80006e-07
3.55947e-07
3.71738e-07
1.95667e-07
1.94019e-07
2.64386e-07
2.53663e-07
7.18829e-07
7.03074e-07
4.51797e-07
4.3123e-07
5.46882e-07
5.15186e-07
3.23866e-07
3.38428e-07
3.20045e-07
3.49257e-07
3.39295e-07
3.35588e-07
3.51558e-07
5.33525e-07
5.05717e-07
5.02934e-07
2.09087e-06
2.10317e-06
1.08713e-06
1.02136e-06
4.4464e-06
4.20187e-06
4.24382e-05
4.24688e-05
0.000162074
0.000154705
0.000274167
0.000276345
0.000122487
0.000116727
4.64858e-05
4.70213e-05
7.15749e-05
7.25558e-05
6.7133e-05
6.61134e-05
9.17664e-05
9.03571e-05
0.000129105
0.000127226
0.000371689
0.000374326
0.000252391
0.00024898
0.000445035
0.000455746
9.6384e-07
9.17666e-07
1.01493e-06
9.67601e-07
3.27622e-06
3.42674e-06
3.98303e-06
4.1868e-06
3.83021e-06
3.91722e-06
3.79728e-06
3.179e-06
3.16238e-06
1.36795e-06
1.43553e-06
2.05614e-06
2.12663e-06
2.53864e-06
2.6357e-06
2.72106e-06
2.81552e-06
2.7135e-06
2.63297e-06
1.88237e-06
1.93215e-06
2.20712e-06
2.26621e-06
2.11895e-06
2.17206e-06
1.12833e-06
1.12661e-06
3.13064e-07
3.23041e-07
3.27066e-07
3.39097e-07
2.79057e-07
2.81376e-07
2.72994e-07
2.68752e-07
3.3748e-07
3.46592e-07
3.07181e-07
3.05119e-07
3.75268e-07
3.91071e-07
1.00625e-06
9.99378e-07
7.2566e-07
5.05982e-07
2.64961e-07
2.6236e-07
4.95902e-07
5.03948e-07
2.64134e-07
3.12894e-07
3.21046e-07
2.99488e-07
3.06815e-07
3.94745e-07
3.84081e-07
4.09219e-07
3.87715e-07
3.74139e-07
3.74185e-07
5.17256e-07
5.63135e-07
5.56215e-07
7.60071e-07
9.49921e-07
9.41282e-07
3.89295e-07
3.67839e-07
4.82473e-07
4.6775e-07
5.65306e-07
5.29807e-07
6.97128e-07
2.67658e-07
2.77622e-07
2.97212e-07
2.52035e-07
2.49374e-07
2.47169e-07
2.53644e-07
2.4249e-07
2.47158e-07
2.2312e-07
2.23207e-07
2.18629e-07
2.19377e-07
2.41173e-07
2.41597e-07
2.343e-07
2.32993e-07
2.95459e-07
2.87435e-07
3.04193e-07
2.99534e-07
2.94606e-07
3.06028e-07
9.87885e-07
1.01708e-06
1.11337e-06
1.1491e-06
1.29837e-06
1.35395e-06
1.40851e-06
1.25769e-06
1.23378e-06
1.27322e-06
1.33093e-06
1.27033e-06
1.2124e-06
1.06523e-06
1.02051e-06
1.08343e-06
9.96239e-07
5.09821e-07
4.94234e-07
5.69735e-07
5.60092e-07
7.44507e-07
7.75448e-07
4.74977e-07
4.54178e-07
4.14729e-07
4.17628e-07
3.64523e-07
3.59649e-07
5.03095e-06
5.24716e-06
2.68641e-06
2.68938e-06
2.75676e-05
2.6264e-05
7.01759e-06
6.67141e-06
6.95354e-06
7.28858e-06
1.1701e-05
1.16752e-05
8.74134e-06
9.16894e-06
1.0145e-05
1.06512e-05
9.65058e-06
5.79067e-06
5.54762e-06
1.16176e-05
1.15464e-05
1.2284e-05
1.29096e-05
7.08593e-06
6.76529e-06
5.32713e-06
5.08509e-06
5.1306e-06
5.16886e-06
5.13073e-06
5.15286e-06
4.81748e-06
4.57694e-06
5.0816e-06
6.5609e-06
6.57795e-06
6.21941e-06
5.91256e-06
8.28171e-06
7.86155e-06
8.54294e-06
8.58159e-06
1.21386e-05
1.15429e-05
1.02839e-05
9.78006e-06
3.84178e-05
4.03181e-05
3.70108e-05
3.89123e-05
2.57418e-05
2.69346e-05
2.46837e-05
1.43606e-05
1.43395e-05
2.03547e-05
2.13592e-05
1.61962e-05
1.62814e-05
1.49017e-05
1.49771e-05
1.45644e-05
1.44794e-05
1.6643e-05
1.65483e-05
1.78289e-05
1.69785e-05
1.95374e-05
1.94222e-05
2.06238e-05
4.09601e-05
3.90012e-05
3.18027e-05
3.34667e-05
2.42142e-05
2.53258e-05
3.00963e-05
2.8763e-05
2.50868e-05
2.52043e-05
2.31027e-05
2.20657e-05
2.37447e-05
2.36211e-05
2.50569e-05
3.88025e-05
4.07387e-05
3.22871e-05
3.08194e-05
3.36067e-05
3.04911e-05
2.9009e-05
3.98649e-05
3.79662e-05
3.55933e-05
4.70445e-05
4.69556e-05
4.69381e-05
4.47278e-05
4.63661e-05
4.65272e-05
4.85763e-05
4.62093e-05
0.000126896
0.000133231
0.000287014
0.000289383
0.000469999
0.000464387
0.000478299
0.000390063
0.000374144
0.000384433
0.000400365
0.000434884
0.000418957
0.000456254
0.000453571
0.000522177
0.000506563
0.000579154
0.00056771
0.000584716
0.000580732
0.000512656
0.000529909
0.000577699
0.000564012
0.000605005
0.00061541
6.81366e-05
7.15803e-05
7.89393e-05
8.30084e-05
0.000142819
0.00014328
0.000123008
0.000123244
9.6892e-05
9.24068e-05
0.000144697
0.000144804
0.000168492
0.000168055
0.000227234
0.000216551
0.000231007
0.000231942
0.000248472
0.000247292
0.00032715
0.000325906
0.000653188
0.000655267
0.000676262
0.000676979
0.000678685
1.19642e-06
1.249e-06
2.07442e-07
2.13664e-07
3.81334e-07
3.64605e-07
3.86905e-07
4.44446e-07
3.81783e-07
3.76395e-07
3.14143e-07
3.39892e-07
3.57144e-07
3.39954e-07
2.298e-06
2.4415e-06
4.84685e-07
4.95088e-07
2.49167e-07
2.60136e-07
2.00162e-07
1.99769e-07
1.90286e-07
1.86944e-07
2.06913e-07
2.03272e-07
2.43665e-07
2.48379e-07
6.38376e-07
5.99213e-07
4.70083e-07
4.50704e-07
5.5009e-07
5.65668e-07
5.80498e-07
3.28465e-07
3.48448e-07
3.42974e-07
2.72815e-07
2.59244e-07
3.65563e-07
3.55654e-07
3.862e-07
2.19616e-07
2.11531e-07
2.09672e-07
1.44665e-06
1.42218e-06
1.39344e-06
1.13045e-06
1.23409e-06
7.6897e-06
7.58446e-06
1.23547e-05
1.24124e-05
6.81498e-05
6.74458e-05
0.000178357
0.000170168
0.000163968
0.000156523
0.000270828
0.00027298
0.000225487
0.000234109
0.000115465
0.000121164
4.59743e-05
4.53367e-05
7.54653e-05
7.65017e-05
7.73451e-05
7.84533e-05
6.37043e-05
6.27408e-05
9.12328e-05
9.26187e-05
0.000101715
0.00010015
0.000278942
0.000274959
0.000360585
0.000366956
0.000388997
0.000391662
0.00023246
0.000229461
0.000252645
0.000249846
0.000334846
0.000346104
0.000496349
0.000499874
1.0652e-06
1.01283e-06
1.09502e-06
1.14772e-06
3.39122e-06
3.24e-06
4.21994e-06
4.01692e-06
2.92174e-06
2.87532e-06
3.75769e-06
3.79241e-06
3.14048e-06
3.11365e-06
1.88943e-06
1.98973e-06
1.64481e-06
1.59664e-06
2.49415e-06
2.59154e-06
2.49011e-06
2.40408e-06
2.74617e-06
2.83991e-06
2.55674e-06
2.4846e-06
1.9063e-06
1.86321e-06
2.13295e-06
2.19354e-06
2.09768e-06
2.15097e-06
2.22822e-06
2.28713e-06
1.20075e-06
1.24343e-06
3.02238e-07
2.98766e-07
3.07726e-07
3.37017e-07
3.48289e-07
2.84855e-07
2.87858e-07
3.30849e-07
1.02414e-06
1.12193e-06
1.08893e-06
2.70618e-07
2.69425e-07
2.67494e-07
3.23478e-07
3.36173e-07
4.75431e-07
4.56366e-07
3.39999e-07
3.55118e-07
3.62381e-07
4.3109e-07
6.15101e-07
1.0047e-06
1.00261e-06
7.49393e-07
7.99079e-07
8.08953e-07
4.04897e-07
4.25307e-07
5.50748e-07
5.35465e-07
3.00514e-07
3.10162e-07
3.18113e-07
2.64142e-07
2.67374e-07
2.40171e-07
2.34137e-07
2.44535e-07
2.41734e-07
2.47905e-07
2.53297e-07
2.25815e-07
2.25892e-07
2.21782e-07
2.21017e-07
2.43218e-07
2.41705e-07
2.32442e-07
2.32603e-07
2.98867e-07
3.07954e-07
1.19579e-06
1.16559e-06
1.18684e-06
1.24247e-06
1.37371e-06
1.34136e-06
1.14766e-06
1.21162e-06
1.22467e-06
1.23276e-06
9.59655e-07
5.22057e-07
5.38004e-07
4.81884e-07
4.72737e-07
6.4397e-07
6.20286e-07
3.7237e-07
3.7453e-07
2.02591e-06
1.95696e-06
1.37437e-06
1.39166e-06
2.8414e-06
2.8375e-06
2.36154e-05
2.36051e-05
2.38826e-05
2.38957e-05
6.56631e-06
6.25836e-06
8.79463e-06
9.23166e-06
9.27849e-06
8.83949e-06
5.92031e-06
5.66935e-06
1.29542e-05
1.29768e-05
1.11649e-05
1.1724e-05
9.63595e-06
9.61907e-06
1.01293e-05
1.06337e-05
5.81598e-06
5.57381e-06
1.10504e-05
1.09799e-05
1.22132e-05
1.21414e-05
8.97607e-06
8.5564e-06
5.43177e-06
5.18487e-06
5.37906e-06
5.13471e-06
5.20093e-06
4.95236e-06
5.92092e-06
6.2735e-06
4.82868e-06
4.78422e-06
5.09603e-06
5.11229e-06
4.56821e-06
4.80757e-06
6.90503e-06
7.26744e-06
8.67057e-06
8.72116e-06
8.05052e-06
7.64899e-06
1.14833e-05
1.2074e-05
1.03326e-05
9.82437e-06
4.16904e-05
4.37907e-05
4.24492e-05
4.45799e-05
3.69856e-05
3.88768e-05
2.59578e-05
2.60064e-05
2.13749e-05
2.13912e-05
1.50609e-05
1.50832e-05
1.62728e-05
1.70849e-05
1.52582e-05
1.53223e-05
1.54966e-05
1.54145e-05
1.35661e-05
1.34937e-05
1.29761e-05
1.29043e-05
2.04188e-05
2.05291e-05
1.8246e-05
1.83492e-05
1.79338e-05
1.80381e-05
1.61659e-05
1.60698e-05
2.07331e-05
2.08405e-05
1.86091e-05
1.84975e-05
3.29693e-05
3.14558e-05
3.88359e-05
4.07801e-05
3.16656e-05
3.33402e-05
2.37291e-05
2.36209e-05
2.5993e-05
2.71953e-05
2.86932e-05
3.00304e-05
2.96223e-05
2.83024e-05
2.32222e-05
2.21814e-05
2.26087e-05
2.24878e-05
3.8255e-05
4.01676e-05
3.24926e-05
3.10173e-05
3.44473e-05
3.28088e-05
3.07191e-05
2.9208e-05
3.61623e-05
3.58791e-05
0.000100299
0.00010551
5.66846e-05
5.94797e-05
4.89896e-05
4.92358e-05
5.10804e-05
5.10904e-05
4.60304e-05
4.58118e-05
0.000149988
0.000157309
0.000300891
0.00031428
0.000511397
0.000517059
0.000436198
0.000418725
0.000411718
0.000414251
0.000422484
0.000406212
0.000410967
0.000394944
0.000402929
0.0003868
0.000437634
0.000421641
0.000469428
0.000485181
0.000574597
0.000578314
0.000582766
0.000571155
0.000535203
0.000517705
0.000583874
0.000569903
0.000620021
0.000624305
0.000626053
0.000630443
6.19809e-05
6.20399e-05
7.16668e-05
6.82189e-05
8.32977e-05
7.92513e-05
0.000143698
0.000144097
0.00010563
0.000105682
9.67893e-05
9.24304e-05
0.000152384
0.000152624
0.000144348
0.000137212
0.000186493
0.000177286
0.000167606
0.000167145
0.000218683
0.000217773
0.000275926
0.000273526
0.000342627
0.000343719
0.000481689
0.000463411
0.000455167
0.000455531
0.000629816
0.000629395
0.000670416
1.30443e-06
1.35698e-06
9.09964e-07
9.59893e-07
2.23625e-07
2.31965e-07
4.88681e-07
4.84475e-07
3.25216e-07
3.47048e-07
4.03028e-07
4.14077e-07
2.97797e-07
2.92488e-07
2.80895e-07
2.83553e-07
3.29452e-07
3.15157e-07
2.39617e-07
2.27274e-07
1.01367e-06
1.0409e-06
8.64883e-07
8.4356e-07
4.70278e-07
4.51322e-07
3.63508e-07
3.8531e-07
2.54079e-07
2.43483e-07
2.04698e-07
2.05437e-07
2.05764e-07
2.03058e-07
1.89759e-07
1.86818e-07
2.10501e-07
2.16484e-07
1.89234e-07
1.9171e-07
2.33686e-07
2.35913e-07
5.41782e-07
5.66993e-07
5.57623e-07
4.6982e-07
5.32427e-07
5.00537e-07
4.08578e-07
3.80419e-07
3.24191e-07
3.10938e-07
3.00495e-07
2.88046e-07
2.795e-07
2.99813e-07
4.87085e-07
4.74454e-07
5.0927e-07
2.90387e-07
2.8972e-07
3.96152e-07
3.87103e-07
1.5491e-06
1.49597e-06
1.48966e-06
1.44128e-06
1.1123e-06
1.15833e-06
1.48931e-06
1.37339e-06
2.01164e-06
2.00277e-06
4.31427e-06
4.12981e-06
2.58599e-06
2.59754e-06
6.46476e-05
6.12976e-05
5.58549e-05
5.28785e-05
0.000120338
0.000114431
0.000117285
0.000123307
0.000241834
0.000235288
0.000273744
0.000270322
0.000242568
0.000250745
9.52596e-05