/*--------------------------------*- C++ -*----------------------------------*\
  =========                 |
  \\      /  F ield         | OpenFOAM: The Open Source CFD Toolbox
   \\    /   O peration     | Website:  https://openfoam.org
    \\  /    A nd           | Version:  7
     \\/     M anipulation  |
\*---------------------------------------------------------------------------*/
FoamFile
{
    version     2.0;
    format      ascii;
    class       volScalarField;
    location    "1800";
    object      T;
}
// * * * * * * * * * * * * * * * * * * * * * * * * * * * * * * * * * * * * * //

dimensions      [0 0 0 1 0 0 0];

internalField   nonuniform List<scalar> 
238806
(
0.00880319
0.00893642
0.0113317
0.011569
0.0111319
0.00953857
0.00950687
0.00881243
0.00869137
0.0116795
0.0118321
0.0107749
0.0147953
0.0149945
0.0157365
0.0150465
0.0119609
0.0121655
0.00798016
0.00796495
0.0137034
0.0140724
0.0150896
0.0152617
0.0156994
0.0116411
0.0119058
0.0119874
0.0125281
0.0124197
0.00801106
0.00795933
0.0136388
0.0131343
0.0122906
0.0119133
0.436586
0.437744
0.0114277
0.0112352
0.0115227
0.012008
0.0084818
0.00843732
0.00802057
0.00803984
0.0160608
0.0153561
0.0126531
0.0121966
0.0103073
0.0101892
0.0143324
0.0145329
0.21095
0.210043
0.0115143
0.0112744
0.0112767
0.01084
0.0110301
0.0111768
0.0110734
0.01116
0.0109083
0.00806641
0.00808021
0.00858191
0.00868132
0.00936721
0.00953231
0.0136993
0.0142246
0.0124708
0.012921
0.0109901
0.0111855
0.0123155
0.0119402
0.0827069
0.0824992
0.0117355
0.011314
0.00907094
0.00900929
0.010299
0.0105099
0.012754
0.0125099
0.0122735
0.0124901
0.0105936
0.0108075
0.00864478
0.00869434
0.0110736
0.0108301
0.0110879
0.0114554
0.011868
0.00810406
0.00853214
0.00860135
0.00869314
0.00866248
0.0175697
0.0180806
0.0130704
0.0135205
0.013406
0.0139233
0.0111502
0.0109081
0.0104443
0.0105617
0.0146385
0.0141755
0.447735
0.447405
0.448563
0.0149444
0.0155928
0.00923805
0.00931057
0.00940928
0.00937918
0.0163685
0.0164584
0.013239
0.0131102
0.0110267
0.0125433
0.0127746
0.0125374
0.0106074
0.0103705
0.00866457
0.00860278
0.0144196
0.0148161
0.014623
0.0143932
0.0107346
0.00833004
0.00839729
0.00834639
0.00840596
0.00871387
0.00863901
0.00910957
0.00922416
0.00982249
0.00995415
0.0173154
0.0179053
0.0141029
0.0145549
0.0140112
0.0145413
0.0141012
0.0144707
0.0112805
0.011476
0.0101744
0.0102719
0.0123773
0.0119953
0.0715839
0.0717665
0.435903
0.437059
0.0120442
0.0116363
0.029094
0.0293186
0.0293035
0.00911953
0.00918671
0.0107233
0.0108429
0.0172467
0.0172515
0.0130719
0.012449
0.012173
0.0122483
0.00903889
0.00907622
0.00858366
0.00853002
0.00849431
0.00844855
0.00911737
0.00920078
0.0112666
0.0109631
0.0109089
0.0130908
0.0130338
0.0112258
0.0113544
0.00804288
0.00800721
0.00839314
0.0084815
0.00848151
0.00856938
0.00989462
0.0101247
0.00938444
0.00926568
0.0232208
0.0230034
0.0189284
0.0195601
0.0163988
0.0157903
0.0147297
0.0141682
0.013211
0.0127619
0.0111498
0.0114107
0.0106783
0.0104734
0.0105214
0.010428
0.0123106
0.0119308
0.0478393
0.0464677
0.131927
0.128761
0.127286
0.124165
0.267514
0.272971
0.00886061
0.00866392
0.00970671
0.00937207
0.0169784
0.0176303
0.0343343
0.0350334
0.00936469
0.00943782
0.0103966
0.0102884
0.010771
0.0110065
0.0121421
0.0124236
0.0148949
0.0147487
0.0117235
0.0114506
0.00867133
0.00861438
0.00862677
0.00857057
0.00860108
0.00854476
0.0119289
0.0118992
0.00926868
0.00916161
0.0113003
0.0114406
0.0138947
0.0144239
0.010538
0.013271
0.00992492
0.0101027
0.00977618
0.00807048
0.00811102
0.00819067
0.00824293
0.00849935
0.00843506
0.00900297
0.00884685
0.00892925
0.00892035
0.00928084
0.00934355
0.0194596
0.0198267
0.0174023
0.0170551
0.0193491
0.0199705
0.0177577
0.0184194
0.0151101
0.0157171
0.0144733
0.0150611
0.0143401
0.0148724
0.0147576
0.0149912
0.0119997
0.0123571
0.0110098
0.011125
0.0107212
0.0109188
0.0145235
0.0144511
0.0127746
0.0127068
0.0128654
0.0132559
0.0680424
0.0663436
0.0551377
0.053597
0.0765665
0.0786092
0.0846807
0.0848849
0.142435
0.142043
0.273147
0.267655
0.449503
0.0123594
0.0119772
0.0156487
0.0150364
0.196414
0.20108
0.0193246
0.018807
0.0295409
0.0299387
0.00952396
0.0096648
0.00929673
0.00926646
0.0106137
0.0104993
0.0112219
0.0115063
0.0135802
0.013531
0.0137229
0.013921
0.00958968
0.00938917
0.00869443
0.00864933
0.00880314
0.00885994
0.00885426
0.00853067
0.00858526
0.0113633
0.0113327
0.00996209
0.00977681
0.00934321
0.00923809
0.0120259
0.0123991
0.0153081
0.00972889
0.00996456
0.0120182
0.0115999
0.010968
0.0107069
0.0107417
0.0109456
0.00875148
0.0088675
0.00812294
0.00808371
0.00819648
0.00821758
0.00823419
0.00830735
0.00830987
0.00838966
0.0111718
0.0108944
0.0103647
0.0101306
0.00879329
0.00883129
0.00869995
0.00875547
0.00924166
0.00924685
0.00943607
0.00955964
0.0101227
0.0103448
0.0223563
0.0225939
0.0166264
0.0161822
0.0197856
0.0203968
0.018134
0.0187862
0.0166982
0.0173774
0.0156965
0.0163731
0.0146858
0.0152188
0.0145294
0.0143157
0.0123029
0.0126643
0.0108335
0.0107173
0.0119142
0.0115616
0.0131194
0.012709
0.0131876
0.0131193
0.0124936
0.0599955
0.0585419
0.0478878
0.0465215
0.0582969
0.0599449
0.0636484
0.0618726
0.128762
0.13195
0.11904
0.116522
0.135615
0.138794
0.365115
0.36465
0.155008
0.151618
0.0103331
0.0101545
0.0104052
0.0161268
0.0163807
0.0161543
0.016503
0.0163246
0.016103
0.206201
0.20531
0.0262406
0.0268337
0.0286481
0.0290054
0.0295702
0.0295918
0.0197058
0.0196191
0.00932106
0.00923385
0.00951836
0.00961411
0.0100248
0.00999177
0.0105448
0.011858
0.0118242
0.0121398
0.0140539
0.0145696
0.0145329
0.0143833
0.00882959
0.00887628
0.00879146
0.0087094
0.00876012
0.00869374
0.0087342
0.00851612
0.0084685
0.0125618
0.0125322
0.0114325
0.0117071
0.010863
0.0111053
0.00925548
0.0093708
0.011585
0.0112484
0.0128195
0.0125071
0.0127218
0.0150001
0.0135746
0.0135302
0.0137339
0.0139394
0.0127632
0.0109708
0.00916501
0.00901149
0.00843308
0.0085269
0.00813943
0.00818636
0.00825023
0.00817333
0.00805826
0.00810461
0.00832139
0.00826534
0.0106418
0.0109024
0.00969855
0.0099243
0.00922717
0.0090573
0.00908075
0.00907368
0.00883461
0.0089394
0.00962659
0.00962513
0.00952631
0.00946225
0.0101729
0.0100392
0.0243261
0.024015
0.0200602
0.0193421
0.0153317
0.0148812
0.017623
0.0171074
0.0187476
0.0181709
0.0175078
0.0169118
0.0185234
0.0191656
0.0170422
0.0177182
0.016028
0.0167036
0.0141928
0.0137409
0.0150475
0.0155796
0.0132983
0.0131866
0.0137734
0.0134879
0.0126243
0.0129885
0.0117883
0.0114398
0.0120106
0.0121234
0.0103629
0.0103297
0.0113108
0.0115543
0.0118197
0.0121429
0.0126853
0.0130968
0.013664
0.0140894
0.0858247
0.0879289
0.0663354
0.0680305
0.0551485
0.0536017
0.0735714
0.0737547
0.0787219
0.0766691
0.0919269
0.094205
0.123823
0.124144
0.117794
0.117673
0.139173
0.135973
0.382493
0.388152
0.439024
0.440209
0.205716
0.205378
0.279564
0.27935
0.0116955
0.0121722
0.00886183
0.00891894
0.0173502
0.0176316
0.0124944
0.0129832
0.0130581
0.0124829
0.0158523
0.0152452
0.189552
0.188748
0.394288
0.395475
0.0384527
0.0386826
0.0326612
0.0333134
0.0328329
0.0323284
0.0298183
0.0300977
0.0299115
0.0292602
0.00966446
0.00980565
0.00927165
0.00914695
0.00903826
0.00894262
0.00959074
0.00945339
0.00984634
0.00981278
0.0107295
0.0105031
0.0112484
0.011547
0.0181048
0.0180508
0.012932
0.0132213
0.013132
0.0138414
0.0146187
0.0100625
0.0101043
0.00896292
0.00903056
0.00875428
0.00881111
0.00877479
0.00881544
0.00854618
0.00849543
0.0129036
0.0128739
0.0110382
0.0112813
0.0116377
0.0116077
0.00949282
0.00937938
0.00914303
0.00904108
0.012589
0.0129638
0.0128914
0.0116321
0.011662
0.0118701
0.0104536
0.010226
0.0101243
0.0101919
0.0104112
0.0118416
0.012276
0.0144338
0.010433
0.00887497
0.00900691
0.00815878
0.0082063
0.0081452
0.00812766
0.00816281
0.00822703
0.0104546
0.0104703
0.0107035
0.0103775
0.01062
0.00930842
0.00914639
0.00898161
0.0091447
0.00890017
0.00875211
0.00888353
0.00882553
0.00907125
0.0092247
0.00994084
0.00987521
0.00942848
0.00942518
0.00971543
0.00991264
0.0204998
0.0201478
0.022206
0.022503
0.0226384
0.0224941
0.0195984
0.0192674
0.0159562
0.0154262
0.015746
0.0152971
0.0171818
0.0166619
0.0186229
0.0191927
0.0171244
0.0165231
0.0173941
0.0180641
0.016361
0.0170394
0.0138478
0.0133967
0.0140855
0.0138801
0.014518
0.0148875
0.0117111
0.0119861
0.0117135
0.0120668
0.0115922
0.0117883
0.0108994
0.0109347
0.0113388
0.0110651
0.0111368
0.0117398
0.0113744
0.0135234
0.0135442
0.0126549
0.0122772
0.0138876
0.01346
0.0190453
0.0185548
0.0858736
0.0859261
0.0714708
0.0732896
0.0702506
0.070024
0.0506486
0.052104
0.0599651
0.0583098
0.0637498
0.0619643
0.12879
0.132003
0.102502
0.102666
0.0996225
0.0994446
0.114454
0.111949
0.113636
0.111106
0.128856
0.125968
0.129431
0.132498
0.242837
0.237918
0.370152
0.364139
0.399043
0.404266
0.437862
0.43903
0.44104
0.442265
0.210199
0.210393
0.447579
0.446082
0.447394
0.0125862
0.0124379
0.00882937
0.00898347
0.00915036
0.00846444
0.00864241
0.00810722
0.00796315
0.0162389
0.0164788
0.0136184
0.0132913
0.0132478
0.012784
0.0107067
0.0109031
0.0111075
0.0108865
0.0252546
0.026611
0.247168
0.252144
0.203258
0.202394
0.24088
0.239875
0.335194
0.334612
0.0311825
0.0303354
0.0251048
0.0256645
0.0318596
0.0325317
0.0339922
0.0347002
0.0312604
0.0317329
0.0295421
0.0295521
0.0297674
0.0289804
0.0292617
0.0105509
0.0103511
0.00937256
0.00948219
0.00920413
0.00912005
0.00916556
0.00944887
0.00937879
0.00932982
0.00994923
0.00982953
0.0106041
0.0106445
0.0102964
0.0101044
0.0118465
0.0115544
0.0173299
0.017233
0.0125001
0.0127868
0.0135109
0.0128622
0.0103071
0.0103987
0.00892778
0.00886776
0.00892513
0.00894259
0.00877572
0.0088483
0.00856909
0.00862783
0.0122371
0.0122074
0.0115402
0.0118158
0.0103113
0.0100889
0.0094927
0.00962069
0.00905811
0.00896145
0.0120956
0.0117406
0.0117641
0.015372
0.0158283
0.0151097
0.0126763
0.0128882
0.0136113
0.0138659
0.0140441
0.0146563
0.0102912
0.00996833
0.0116335
0.0112856
0.00824148
0.00815055
0.00829583
0.00835577
0.00824384
0.00830316
0.00817129
0.00812195
0.00987713
0.00995034
0.0101851
0.00949532
0.00930993
0.00893713
0.00909439
0.00865406
0.00866642
0.00907892
0.0089669
0.00984214
0.00984215
0.00974971
0.00962153
0.0234338
0.0237568
0.023727
0.0234623
0.0217875
0.0219459
0.0184879
0.0188289
0.0167299
0.0149346
0.0144831
0.0166524
0.0170929
0.0183186
0.0177351
0.0161494
0.0167549
0.015388
0.0147872
0.0128891
0.0127771
0.0154069
0.0157755
0.0139019
0.014189
0.0127168
0.0129994
0.0116884
0.0114187
0.0119252
0.0121222
0.0116279
0.0115683
0.0101137
0.010077
0.010076
0.0101088
0.0108995
0.011066
0.0110259
0.0139643
0.0139812
0.0124918
0.0121099
0.0137302
0.0133014
0.0878382
0.0878856
0.0879743
0.088025
0.0752388
0.0752629
0.0697626
0.069778
0.050118
0.0488242
0.052095
0.0506365
0.0599924
0.058329
0.0714182
0.0734023
0.0746551
0.0745629
0.0941831
0.0942003
0.104995
0.105164
0.0924387
0.0922597
0.14257
0.145848
0.118216
0.118485
0.12144
0.124164
0.111304
0.1088
0.113231
0.110699
0.140904
0.144199
0.128093
0.125123
0.132833
0.129737
0.167617
0.167914
0.370699
0.371199
0.404841
0.399589
0.437238
0.438401
0.41866
0.413264
0.27078
0.276006
0.210518
0.205924
0.279994
0.279779
0.31296
0.312626
0.00970392
0.00946324
0.00942764
0.0118445
0.0123222
0.00977237
0.0100504
0.00960475
0.00922253
0.0335592
0.0348236
0.0088551
0.00906141
0.0179662
0.0182544
0.016738
0.0170069
0.0122078
0.0127253
0.0117902
0.0120825
0.0119075
0.011749
0.0216191
0.0207526
0.0281235
0.028005
0.347164
0.351245
0.183561
0.182771
0.207089
0.207972
0.201526
0.200651
0.365066
0.36446
0.305855
0.304738
0.0186745
0.0181563
0.050106
0.0499183
0.0377457
0.0373244
0.0203845
0.0198129
0.0273377
0.0267538
0.0336649
0.0330224
0.0309194
0.0314015
0.0309089
0.0304553
0.0293875
0.0297918
0.0300486
0.0198753
0.00940536
0.00953875
0.00893462
0.00902785
0.0096678
0.00977729
0.00990962
0.00974265
0.0104244
0.0103872
0.0112925
0.0110185
0.0112525
0.010979
0.0179951
0.0179866
0.01855
0.0163456
0.0165607
0.0116303
0.0118937
0.0140723
0.0142949
0.00989298
0.00975438
0.00980354
0.00989709
0.00916922
0.00921977
0.00889244
0.00864501
0.0087081
0.00886441
0.00890488
0.0118365
0.0120946
0.0124166
0.0123069
0.0111746
0.0109326
0.00963173
0.00979237
0.0106446
0.0105133
0.0103539
0.0114102
0.0111331
0.0122738
0.0118977
0.0136708
0.013252
0.0133193
0.0117139
0.0114631
0.011827
0.0122368
0.0124142
0.0131393
0.0133733
0.0142574
0.0148631
0.0106336
0.00877241
0.00879532
0.00838694
0.00835953
0.00826569
0.00821331
0.00826123
0.00826143
0.00951608
0.00945357
0.0100682
0.010246
0.00950452
0.00932385
0.00914189
0.00899028
0.00917625
0.00911489
0.00879145
0.00878068
0.00966005
0.00972509
0.022181
0.0225333
0.0209442
0.021231
0.022853
0.0231326
0.0223775
0.0222684
0.0177483
0.0180881
0.0177293
0.0173809
0.0158215
0.0163488
0.0161775
0.0157307
0.0160531
0.0154439
0.0144827
0.014583
0.015255
0.0155514
0.0133768
0.0130927
0.012965
0.0133315
0.0117699
0.0116563
0.0122788
0.0124767
0.0112245
0.0112754
0.0103307
0.0103681
0.0106404
0.0106048
0.0106487
0.0108188
0.013991
0.0140613
0.0144202
0.0144305
0.0130494
0.0128889
0.0857772
0.0857248
0.0771572
0.0771837
0.0733888
0.0715603
0.0598316
0.0582447
0.0681407
0.0678674
0.048064
0.0478225
0.0492108
0.0492257
0.0535941
0.055122
0.0566953
0.0566893
0.0638756
0.0620822
0.0728759
0.0709213
0.129226
0.132265
0.091924
0.0919081
0.0895571
0.0918502
0.0896118
0.0894543
0.09666
0.0964873
0.0998058
0.1306
0.127476
0.124391
0.121387
0.11785
0.121265
0.123991
0.111505
0.109003
0.1086
0.108398
0.114805
0.114661
0.117513
0.120428
0.138552
0.135433
0.128496
0.125582
0.133167
0.130053
0.164239
0.160621
0.14889
0.148691
0.372161
0.378106
0.358513
0.364638
0.394197
0.39367
0.428909
0.43235
0.438457
0.439633
0.426862
0.430976
0.270607
0.275798
0.199367
0.199239
0.240925
0.241085
0.291496
0.291756
0.285106
0.285356
0.354387
0.35431
0.445752
0.445735
0.0100147
0.00971238
0.0112566
0.0114207
0.00953895
0.0097594
0.0104653
0.0107406
0.00915868
0.00925774
0.0095075
0.0138197
0.0136323
0.00769636
0.0075994
0.0173426
0.0178811
0.0176147
0.0158834
0.0156465
0.0132637
0.0137976
0.0105193
0.0105237
0.010355
0.0102547
0.0113981
0.0113464
0.0124877
0.0260475
0.0256442
0.0267369
0.0253854
0.24773
0.246817
0.367248
0.368499
0.228545
0.229261
0.194986
0.194243
0.211856
0.212758
0.36026
0.359416
0.310326
0.31145
0.0220023
0.0213376
0.0200763
0.0195196
0.04865
0.0488218
0.0458525
0.0448163
0.0415961
0.0414875
0.0388697
0.0390118
0.0261862
0.0256342
0.0336223
0.0343394
0.0353462
0.0360098
0.0306659
0.0311555
0.0318411
0.0313695
0.0291716
0.0288393
0.00993644
0.0101076
0.00981404
0.00997695
0.00907113
0.00896802
0.00922023
0.00911863
0.0100043
0.0101333
0.0102177
0.0101832
0.0107708
0.0105202
0.0109761
0.0107374
0.0154327
0.0154651
0.0159873
0.0122474
0.0123608
0.0119784
0.0122001
0.0134525
0.0137263
0.00995225
0.0101495
0.0089893
0.00910301
0.00873135
0.00866431
0.0130832
0.0129734
0.0119986
0.0121078
0.00898379
0.00890651
0.00973412
0.00961037
0.00937071
0.00949433
0.0128564
0.013315
0.0130991
0.0117343
0.0119072
0.011135
0.0109003
0.0123962
0.0122248
0.0120299
0.0114147
0.0139305
0.0138803
0.0232703
0.0231343
0.0111969
0.0109043
0.0119361
0.012478
0.0120656
0.0140566
0.0143468
0.0145571
0.0135052
0.0137123
0.00866959
0.0085783
0.00861291
0.00866877
0.00829721
0.00827322
0.00801202
0.00797299
0.00800298
0.0084369
0.00843933
0.00827509
0.00830293
0.00932238
0.00926621
0.0100017
0.0098369
0.00991294
0.00970366
0.009166
0.00934344
0.00896343
0.00902318
0.021527
0.0218951
0.0241019
0.0246602
0.0215313
0.0218474
0.0201156
0.0203944
0.0203779
0.0209761
0.0209665
0.020741
0.0183705
0.0186349
0.0179842
0.0181215
0.0162333
0.016757
0.0141524
0.0140428
0.0150761
0.0147835
0.0149529
0.0153223
0.0126417
0.012361
0.0133246
0.0136926
0.011437
0.0113226
0.0112163
0.011249
0.0106045
0.0106414
0.0104047
0.010577
0.0135475
0.0136165
0.0450934
0.0451209
0.0791787
0.0791678
0.0804941
0.0825306
0.0714161
0.0732311
0.0663183
0.0680068
0.0581824
0.0598304
0.0807852
0.0810035
0.0597207
0.0614253
0.0510206
0.0511501
0.0554298
0.0537002
0.0520955
0.0506377
0.0600752
0.058391
0.0551219
0.0535892
0.0567071
0.0640326
0.0622345
0.0657032
0.0616338
0.0633631
0.0706739
0.0725989
0.144379
0.147727
0.138359
0.135127
0.111353
0.11136
0.096284
0.0961972
0.0837448
0.083544
0.0850902
0.0829172
0.100583
0.100784
0.0942677
0.0940978
0.104104
0.103938
0.133338
0.136483
0.121112
0.120728
0.109433
0.109212
0.116364
0.118934
0.110905
0.113439
0.106684
0.106525
0.120622
0.120798
0.13517
0.13829
0.131124
0.131489
0.123395
0.126397
0.14281
0.139534
0.212334
0.216979
0.152903
0.149518
0.155845
0.156017
0.149053
0.258367
0.263497
0.408635
0.402867
0.36894
0.362978
0.406328
0.401099
0.405798
0.400517
0.415895
0.410942
0.432946
0.42948
0.436915
0.436364
0.431842
0.427662
0.440572
0.441787
0.155026
0.151616
0.239357
0.239538
0.262774
0.262955
0.25156
0.256802
0.296808
0.297152
0.285599
0.285834
0.342072
0.341783
0.409029
0.408983
0.448691
0.449448
0.0198771
0.019715
0.011955
0.0115543
0.0117723
0.0108709
0.0110416
0.010551
0.0106861
0.0108145
0.00998358
0.00864381
0.0174298
0.0178513
0.011004
0.0112873
0.00780027
0.00776061
0.00927764
0.00906801
0.0170644
0.0168193
0.0126761
0.0123237
0.0142745
0.0137462
0.0103875
0.010659
0.0103221
0.010852
0.0106703
0.0106015
0.01089
0.0140528
0.0135844
0.0135344
0.0338781
0.0339707
0.0222315
0.0213744
0.048582
0.0470385
0.170861
0.170936
0.296762
0.291126
0.366223
0.367472
0.238836
0.234017
0.162299
0.162818
0.198851
0.199609
0.196922
0.196067
0.225616
0.224659
0.255311
0.254308
0.392848
0.394054
0.328075
0.326902
0.404977
0.408945
0.0184002
0.017886
0.018983
0.0184628
0.0380701
0.0390546
0.0420702
0.0432784
0.0424145
0.0429366
0.0422142
0.0382062
0.0380525
0.0225791
0.0232301
0.0293892
0.0299771
0.0332296
0.033955
0.0349188
0.0355997
0.0350529
0.034465
0.028155
0.0285926
0.0311185
0.0315949
0.030451
0.030888
0.0203742
0.0203539
0.00974833
0.00992345
0.00997001
0.0101598
0.00914199
0.0091828
0.00902372
0.00893488
0.0101932
0.0103317
0.00968404
0.00965073
0.0107434
0.0109888
0.0189225
0.0188393
0.0154761
0.0126139
0.00883789
0.00878313
0.0126318
0.0127417
0.00883559
0.00975497
0.00989714
0.00950864
0.00963288
0.0110285
0.0108666
0.0112483
0.0109411
0.0107345
0.0107297
0.0127979
0.0134185
0.0133198
0.0159941
0.0183009
0.0181934
0.0109558
0.010645
0.0122759
0.0120643
0.0134038
0.0129283
0.0151353
0.00899699
0.00917125
0.00950337
0.00870682
0.00867469
0.00863783
0.00876552
0.00852576
0.0086143
0.0081191
0.00811931
0.00800322
0.00802362
0.00853957
0.00854436
0.00838843
0.00835866
0.00953803
0.00941253
0.00972574
0.00965713
0.00948814
0.00968381
0.0187611
0.0191053
0.0202085
0.0206064
0.0222814
0.0229051
0.0235146
0.0219269
0.0216655
0.0221397
0.0228093
0.0221493
0.0214647
0.0197031
0.0191555
0.0199065
0.0188701
0.0128513
0.0126527
0.0137212
0.0136098
0.0158825
0.0162488
0.0123037
0.0120255
0.0115549
0.0115844
0.0107871
0.010707
0.0492057
0.0503504
0.0341345
0.0342181
0.116432
0.113739
0.0575046
0.0559309
0.0584755
0.0599585
0.077066
0.0769999
0.06625
0.0679272
0.0715421
0.0733674
0.0697355
0.0531905
0.0519712
0.076879
0.0766445
0.0791451
0.08122
0.0591741
0.0577159
0.0504099
0.0491177
0.0492422
0.0494614
0.0493287
0.0494158
0.0478132
0.0464411
0.0492129
0.0567247
0.0567473
0.0551277
0.0535911
0.0642147
0.0624174
0.0654617
0.0655712
0.0791131
0.077032
0.0726813
0.0707464
0.138383
0.141557
0.135152
0.138377
0.113767
0.116297
0.111322
0.0853528
0.0853401
0.102327
0.104813
0.0914567
0.0916539
0.087504
0.0877019
0.0873495
0.087199
0.0930017
0.0928103
0.0968343
0.0944399
0.101577
0.101405
0.104265
0.143437
0.140166
0.127285
0.130435
0.111715
0.114213
0.124318
0.121618
0.113826
0.114014
0.109898
0.107404
0.112024
0.111881
0.114902
0.141209
0.144505
0.129171
0.126293
0.131826
0.126672
0.123632
0.143529
0.140238
0.136322
0.151776
0.151749
0.153107
0.149708
0.152628
0.152741
0.156101
0.152526
0.23757
0.242479
0.329553
0.330302
0.397749
0.396207
0.40076
0.36956
0.36358
0.37073
0.376685
0.388665
0.382997
0.39513
0.394686
0.416337
0.411331
0.433506
0.430011
0.435783
0.435171
0.411783
0.417234
0.431418
0.427267
0.437044
0.44008
0.17726
0.181184
0.190675
0.194928
0.243823
0.244039
0.229276
0.229356
0.207935
0.203725
0.246311
0.246223
0.262424
0.262327
0.29284
0.287277
0.297472
0.297763
0.307258
0.306899
0.341484
0.341239
0.446677
0.446906
0.448667
0.448964
0.449353
0.0221211
0.02272
0.00806128
0.00820013
0.0110634
0.0108056
0.0111609
0.0120454
0.0110446
0.01096
0.00995545
0.0103717
0.0106489
0.0103681
0.033577
0.0348301
0.0131122
0.0133004
0.0089828
0.00920441
0.00791065
0.00789779
0.00766609
0.00757868
0.00806154
0.00797999
0.00883884
0.00893365
0.015753
0.0151193
0.0129864
0.0126572
0.0143278
0.0145867
0.0148304
0.0104811
0.0108432
0.0107447
0.00942266
0.00915558
0.0111468
0.0109685
0.0115146
0.00850518
0.00831713
0.0082831
0.0271421
0.0268297
0.0264565
0.0226524
0.0239349
0.0663072
0.0659149
0.092779
0.0929422
0.206326
0.205789
0.298948
0.29326
0.297574
0.291933
0.365231
0.366478
0.33558
0.340856
0.233293
0.238103
0.164765
0.164096
0.203528
0.2043
0.206648
0.207469
0.192393
0.191557
0.223479
0.224411
0.235729
0.234737
0.357246
0.356061
0.387781
0.390693
0.397147
0.398318
0.319226
0.318181
0.330063
0.329215
0.370318
0.37537
0.420927
0.422161
0.0194967
0.0189355
0.0198595
0.0204131
0.0387488
0.037755
0.0435247
0.0423257
0.0359396
0.0355371
0.0416376
0.0419186
0.0378547
0.037616
0.0271912
0.0280279
0.0257375
0.0252827
0.0328186
0.0335526
0.0329341
0.0322717
0.0351536
0.0358256
0.0338997
0.0333564
0.02848
0.0280981
0.0303619
0.0308604
0.0302167
0.0306592
0.0313437
0.0318149
0.0210387
0.0214866
0.00955465
0.00950012
0.00965812
0.0101339
0.0103171
0.00925522
0.00930686
0.0100917
0.019138
0.0202874
0.0199288
0.00897788
0.00895051
0.008912
0.00992937
0.0101352
0.0122605
0.0119783
0.010185
0.0104256
0.0105406
0.0115778
0.0141164
0.018971
0.0189451
0.015802
0.0164281
0.0165431
0.0112078
0.0115164
0.0132023
0.0129904
0.00955565
0.00970999
0.00984682
0.00893037
0.00898709
0.00847357
0.00834773
0.00857959
0.008528
0.00863515
0.00873498
0.00818654
0.00818621
0.00808651
0.00806677
0.008586
0.00855325
0.00834453
0.00834527
0.00961597
0.00975499
0.0211763
0.0208417
0.0210206
0.021651
0.0231567
0.0228197
0.0206676
0.0214201
0.021607
0.0216971
0.0184237
0.0130452
0.013245
0.012497
0.0123846
0.0146231
0.0143337
0.0109028
0.0109446
0.0293696
0.0287755
0.0228293
0.0229826
0.0351667
0.0351876
0.108659
0.108704
0.108736
0.108771
0.0557161
0.0542712
0.0663504
0.068051
0.0676619
0.0659552
0.0537484
0.0525169
0.0811266
0.0811592
0.0752024
0.0771174
0.069699
0.0696478
0.0715113
0.0733334
0.0533406
0.0521307
0.0748803
0.0746375
0.0789204
0.0786942
0.0671306
0.0654483
0.0510371
0.0497365
0.0507206
0.0494247
0.0496528
0.0483017
0.053399
0.0551502
0.0475754
0.0473275
0.0492324
0.0492703
0.046464
0.0478319
0.0583559
0.0600286
0.0658616
0.0660429
0.0634992
0.0617431
0.0769018
0.078974
0.0727731
0.0708283
0.1442
0.147548
0.144907
0.148247
0.135198
0.138409
0.114014
0.114045
0.103658
0.103627
0.0874862
0.0874998
0.0912805
0.0935491
0.0884442
0.0886115
0.0893587
0.0891599
0.0833378
0.0831284
0.0817273
0.0815544
0.103029
0.10323
0.0975684
0.0977614
0.0970117
0.0971928
0.0920861
0.0919174
0.104421
0.104578
0.099096
0.0989222
0.130008
0.127099
0.139992
0.143252
0.127114
0.130295
0.110306
0.110114
0.116003
0.118607
0.121563
0.124281
0.123768
0.121047
0.110077
0.107585
0.109321
0.109171
0.140576
0.143871
0.129442
0.126566
0.133858
0.130749
0.126963
0.12388
0.137015
0.13667
0.212223
0.216883
0.167009
0.17072
0.156304
0.156535
0.159614
0.159495
0.152396
0.15221
0.257769
0.262893
0.341113
0.347023
0.424418
0.425507
0.38424
0.378143
0.376725
0.377266
0.381317
0.375482
0.378784
0.37292
0.377171
0.371174
0.389158
0.383499
0.400085
0.405356
0.435188
0.436346
0.434035
0.430508
0.417895
0.412403
0.432247
0.428048
0.441907
0.443152
0.442689
0.443955
0.169744
0.169781
0.181227
0.177304
0.195094
0.190879
0.244228
0.244406
0.215268
0.215197
0.207718
0.203631
0.251641
0.251637
0.2464
0.241261
0.273496
0.267929
0.262225
0.26212
0.291219
0.290925
0.319834
0.318939
0.34796
0.348128
0.39768
0.391704
0.383998
0.383998
0.436544
0.436602
0.447184
0.0233401
0.0239414
0.0186693
0.0193432
0.00836757
0.00853795
0.0126931
0.0126277
0.0101797
0.0105277
0.0114017
0.0115827
0.00968378
0.0095905
0.00938969
0.00943912
0.010202
0.0099668
0.00863547
0.00839795
0.021485
0.0218493
0.018723
0.0183852
0.0129834
0.0126613
0.0111304
0.0115078
0.00905386
0.00884141
0.00801403
0.0080249
0.00804125
0.00798
0.00765244
0.00757543
0.00813823
0.00827121
0.00763659
0.00769785
0.00863148
0.00867652
0.0141802
0.0145937
0.0144358
0.0129799
0.0140342
0.0134999
0.0119201
0.0114265
0.0104055
0.0101571
0.00995884
0.00971784
0.00954742
0.0099353
0.0132651
0.0130469
0.0136416
0.00983899
0.0098223
0.0119283
0.0117734
0.0282954
0.0277019
0.02756
0.0270111
0.0225196
0.023137
0.0269571
0.0256204
0.0325113
0.032414
0.0475079
0.0463702
0.0367284
0.0369797
0.201608
0.196933
0.193377
0.188713
0.258419
0.253045
0.261087
0.266585
0.352021
0.347937
0.365028
0.364008
0.345944
0.350787
0.216207
0.211683
0.172525
0.172989
0.147917
0.148525
0.177233
0.176499
0.247475
0.243017
0.200354
0.195714
0.193223
0.194047
0.18794
0.187125
0.23648
0.237428
0.219445
0.218533
0.230641
0.229665
0.278541
0.277473
0.344143
0.34309
0.392165
0.389294
0.305605
0.306607
0.313675
0.312597
0.324706
0.323728
0.336255
0.38178
0.386719
0.419775
0.420994
0.0192116
0.0197704
0.0497189
0.0495079
0.0332778
0.0323876
0.0390605
0.0379184
0.0488228
0.0500604
0.0342943
0.0338768
0.0359817
0.0355686
0.0409602
0.0413187
0.0404518
0.0402389
0.0399598
0.0399152
0.0375603
0.0376379
0.0270698
0.027915
0.0262922
0.0258638
0.0287228
0.0293908
0.0308414
0.0302754
0.030584
0.0312106
0.0346445
0.0353344
0.0355972
0.0362458
0.03326
0.0338091
0.0323026
0.0328085
0.0289711
0.0285426
0.0297386
0.0301935
0.030804
0.0303642
0.0226277
0.0219072
0.020528
0.00980262
0.0096702
0.0201207
0.0205473
0.0123642
0.0126472
0.0101862
0.00999588
0.00883881
0.0150379
0.0143729
0.0134136
0.011784
0.0114606
0.0107734
0.0213232
0.0205593
0.0191222
0.0184605
0.0167214
0.0175558
0.0115097
0.0112931
0.0093519
0.00952115
0.00920396
0.0088395
0.00856692
0.0086094
0.00876166
0.0088743
0.0084466
0.0085477
0.00822476
0.0081992
0.00805862
0.00806095
0.008451
0.00848238
0.0198088
0.0194795
0.0212504
0.0208668
0.0211905
0.020982
0.0134553
0.0136568
0.028288
0.0289007
0.01765
0.0171417
0.0275297
0.0266203
0.044135
0.0429611
0.0437691
0.0438019
0.122428
0.122547
0.111541
0.111603
0.0922699
0.0945078
0.080647
0.082734
0.0528632
0.0737806
0.0737173
0.0772125
0.0772019
0.0811918
0.0832501
0.0532254
0.0519714
0.0549893
0.0547993
0.0526214
0.052687
0.08318
0.0832153
0.0791182
0.0791478
0.0679747
0.0662922
0.0627734
0.0643527
0.0525428
0.0512805
0.0729222
0.0726704
0.0771124
0.0797888
0.0818405
0.0652157
0.0669048
0.0513532
0.0500479
0.0547308
0.0533652
0.0523014
0.0525214
0.0498608
0.048551
0.0534207
0.0552314
0.048237
0.0468864
0.0521123
0.050674
0.0478153
0.046442
0.0776611
0.0778477
0.0698191
0.0679111
0.0693327
0.0674326
0.0691005
0.0672154
0.0634438
0.0616972
0.0669405
0.0687877
0.0729882
0.0710247
0.0747569
0.131321
0.128135
0.14469
0.148034
0.144813
0.148154
0.121579
0.121023
0.12323
0.116745
0.116801
0.106177
0.106156
0.085318
0.0853413
0.100502
0.100363
0.0918341
0.0918783
0.0846136
0.0844614
0.0905029
0.0927814
0.0856984
0.0858931
0.089754
0.089948
0.0852955
0.0854986
0.0829508
0.082819
0.1055
0.105703
0.0951724
0.0953648
0.0946163
0.0947973
0.0917529
0.104742
0.10226
0.101746
0.0992694
0.142209
0.145499
0.139825
0.14307
0.133238
0.136351
0.119102
0.121569
0.112743
0.112957
0.11478
0.112218
0.118788
0.116193
0.118393
0.115792
0.112386
0.112575
0.1173
0.119055
0.11693
0.134211
0.137357
0.145057
0.141759
0.13213
0.132397
0.127671
0.124597
0.13989
0.143175
0.158935
0.158961
0.166379
0.16999
0.15707
0.153574
0.163111
0.165537
0.162589
0.159826
0.149348
0.149201
0.189755
0.193988
0.205611
0.201055
0.255829
0.250789
0.270349
0.269826
0.336803
0.342515
0.408161
0.404402
0.404784
0.372355
0.3662
0.371639
0.365528
0.38272
0.383311
0.37483
0.380607
0.364963
0.358461
0.377685
0.371688
0.389629
0.384003
0.431045
0.427635
0.434526
0.433846
0.419317
0.413949
0.418285
0.412852
0.422623
0.422267
0.440081
0.441285
0.441484
0.44272
0.442308
0.443564
0.151737
0.151751
0.177213
0.181135
0.159059
0.158979
0.239176
0.238987
0.206171
0.206066
0.215205
0.221799
0.226548
0.257049
0.257112
0.241306
0.246393
0.267793
0.273322
0.286053
0.280752
0.308189
0.307681
0.327337
0.328095
0.348358
0.3486
0.395747
0.39598
0.445525
0.445307
0.371319
0.371256
0.431651
0.431727
0.0390226
0.0380844
0.0116391
0.0113994
0.0117911
0.0171639
0.0179227
0.00873535
0.00854574
0.00959392
0.00987929
0.00979185
0.00947661
0.010875
0.0105606
0.011377
0.0113499
0.0114856
0.0116586
0.0111232
0.00922888
0.0362059
0.0373649
0.0199685
0.020061
0.0172586
0.0168273
0.0176723
0.0175462
0.0103447
0.0106319
0.0119677
0.0123463
0.0120236
0.0117403
0.0108312
0.0112016
0.00883774
0.00905078
0.00928404
0.00814451
0.00815824
0.00759396
0.00757939
0.00793704
0.00783087
0.00773726
0.00836022
0.00843325
0.00854885
0.0081584
0.00829984
0.00793222
0.00785678
0.00799644
0.00786862
0.0177125
0.0177401
0.0147395
0.0152981
0.0138581
0.0140188
0.01361
0.0130726
0.0133531
0.0122608
0.0129194
0.0110031
0.0107021
0.0113129
0.0100789
0.013543
0.014234
0.0196248
0.0190577
0.0094407
0.0105186
0.00999248
0.036762
0.0370868
0.0285278
0.0279356
0.0266062
0.0263487
0.027053
0.0230214
0.0227717
0.0293924
0.029855
0.028329
0.137937
0.141164
0.0462285
0.047361
0.0383313
0.0380969
0.0984617
0.0955165
0.1569
0.157307
0.184125
0.184169
0.243547
0.248883
0.252126
0.257494
0.284729
0.279132
0.300125
0.305736
0.364272
0.365517
0.344034
0.338731
0.351838
0.346987
0.258253
0.263412
0.225451
0.230171
0.180554
0.18444
0.172126
0.158389
0.15892
0.168076
0.167433
0.163431
0.179258
0.178493
0.207246
0.207981
0.205057
0.197772
0.198616
0.228495
0.229448
0.236724
0.237721
0.259707
0.260733
0.318316
0.317224
0.383374
0.381993
0.366104
0.361275
0.388782
0.387333
0.399984
0.401153
0.273654
0.272696
0.320314
0.314777
0.331103