/*--------------------------------*- C++ -*----------------------------------*\
  =========                 |
  \\      /  F ield         | OpenFOAM: The Open Source CFD Toolbox
   \\    /   O peration     | Website:  https://openfoam.org
    \\  /    A nd           | Version:  7
     \\/     M anipulation  |
\*---------------------------------------------------------------------------*/
FoamFile
{
    version     2.0;
    format      ascii;
    class       volScalarField;
    location    "1680";
    object      T;
}
// * * * * * * * * * * * * * * * * * * * * * * * * * * * * * * * * * * * * * //

dimensions      [0 0 0 1 0 0 0];

internalField   nonuniform List<scalar> 
238806
(
0.143625
0.145003
0.16529
0.167378
0.163666
0.149967
0.149675
0.143781
0.142529
0.168293
0.169568
0.160768
0.19477
0.196273
0.199391
0.194267
0.170566
0.172214
0.134693
0.134536
0.185553
0.188273
0.194604
0.195922
0.199166
0.167908
0.170059
0.170731
0.175318
0.174396
0.135087
0.134471
0.184227
0.180392
0.175083
0.171975
0.907208
0.907821
0.166224
0.164695
0.167063
0.170862
0.138762
0.138238
0.135191
0.135398
0.202146
0.196989
0.176695
0.17314
0.157931
0.156948
0.19126
0.192787
0.738354
0.737449
0.166931
0.164889
0.164966
0.161254
0.162858
0.164179
0.163415
0.164203
0.162071
0.13574
0.135888
0.1414
0.14241
0.149199
0.150772
0.184868
0.188798
0.175388
0.178857
0.163861
0.165425
0.175238
0.172152
0.49318
0.492564
0.171289
0.167764
0.145148
0.144537
0.156865
0.158764
0.176828
0.174882
0.173024
0.174743
0.159221
0.161009
0.140602
0.141158
0.164083
0.161949
0.163813
0.166805
0.170065
0.136145
0.140922
0.141626
0.142589
0.142302
0.213699
0.217207
0.180232
0.183635
0.182553
0.186453
0.164851
0.162904
0.159244
0.160206
0.193572
0.190051
0.910771
0.910616
0.911195
0.197139
0.202243
0.146864
0.147551
0.148694
0.148409
0.203994
0.204637
0.18062
0.179621
0.162928
0.175171
0.177003
0.175108
0.159205
0.15722
0.14083
0.140135
0.189845
0.192888
0.191402
0.1897
0.1609
0.138594
0.139237
0.138918
0.139548
0.142802
0.142051
0.146792
0.147868
0.153623
0.154786
0.211703
0.215813
0.188355
0.191677
0.18731
0.191245
0.188638
0.191332
0.166358
0.167902
0.156903
0.157748
0.175835
0.172692
0.459791
0.460374
0.906958
0.907572
0.173928
0.170551
0.288147
0.289397
0.28936
0.145667
0.146316
0.160912
0.161903
0.210367
0.210378
0.179304
0.174432
0.172206
0.172839
0.144762
0.145154
0.139904
0.139296
0.138901
0.138364
0.145629
0.146457
0.165259
0.162646
0.162295
0.179715
0.179262
0.164814
0.165835
0.135406
0.134997
0.139397
0.140341
0.140338
0.141239
0.15384
0.155915
0.149422
0.148325
0.251986
0.250585
0.222914
0.227229
0.204921
0.200549
0.192398
0.188213
0.181178
0.177751
0.164991
0.167074
0.161007
0.159323
0.159989
0.159192
0.175277
0.172149
0.374266
0.368534
0.607216
0.601029
0.599812
0.593463
0.790018
0.795105
0.145706
0.143764
0.153296
0.15028
0.212962
0.217946
0.314877
0.31839
0.148117
0.148797
0.157917
0.156997
0.161178
0.163251
0.172305
0.174618
0.193352
0.192224
0.168602
0.166372
0.140864
0.140277
0.140383
0.139767
0.140136
0.139488
0.171359
0.171113
0.14718
0.146102
0.165313
0.166529
0.18597
0.189961
0.159221
0.181108
0.153731
0.155421
0.152452
0.135739
0.136194
0.137184
0.137758
0.140551
0.139883
0.145607
0.144014
0.145065
0.144968
0.148539
0.149122
0.226507
0.229033
0.211903
0.209374
0.225815
0.230027
0.214672
0.21929
0.195428
0.199852
0.190557
0.194899
0.189862
0.19378
0.194087
0.195746
0.171857
0.174635
0.164212
0.165125
0.161516
0.163119
0.192678
0.192094
0.179053
0.17849
0.179732
0.182859
0.449852
0.44434
0.403152
0.397266
0.4758
0.481903
0.498711
0.499301
0.629064
0.628486
0.795214
0.790097
0.911672
0.176597
0.17347
0.202691
0.197886
0.723438
0.729497
0.225792
0.222304
0.290517
0.292739
0.14958
0.150913
0.14757
0.147273
0.159868
0.158909
0.165017
0.167348
0.183183
0.182849
0.184287
0.18583
0.150139
0.148233
0.14099
0.140659
0.142428
0.143011
0.142911
0.139332
0.139963
0.16658
0.166322
0.153674
0.152011
0.147776
0.146816
0.171085
0.174167
0.196555
0.152136
0.154264
0.17129
0.167955
0.162733
0.160496
0.160882
0.162514
0.142985
0.144106
0.136313
0.135873
0.137236
0.137457
0.137657
0.138453
0.138485
0.139324
0.164899
0.162516
0.157928
0.15585
0.143653
0.144003
0.142707
0.143259
0.148155
0.148216
0.149972
0.151096
0.156261
0.158278
0.246235
0.24779
0.207067
0.203959
0.228791
0.232902
0.21735
0.22187
0.20699
0.211827
0.199554
0.204468
0.192519
0.19641
0.192271
0.190744
0.174355
0.177135
0.162598
0.161662
0.171973
0.16898
0.181696
0.178424
0.182346
0.181784
0.176714
0.422317
0.417157
0.374382
0.368675
0.415273
0.42123
0.433699
0.427533
0.60111
0.607337
0.582131
0.576741
0.616501
0.62249
0.865832
0.865601
0.648187
0.642445
0.158256
0.156763
0.15889
0.206529
0.208492
0.206592
0.20931
0.207917
0.206217
0.732465
0.731553
0.269293
0.27276
0.285379
0.2874
0.290831
0.290965
0.22771
0.227095
0.147598
0.146758
0.149693
0.150583
0.154609
0.154326
0.159171
0.170085
0.169859
0.172426
0.186893
0.190715
0.1905
0.189316
0.142483
0.143209
0.142207
0.141316
0.141865
0.141165
0.141601
0.139147
0.138591
0.17656
0.17632
0.167149
0.169479
0.162232
0.164353
0.147028
0.148159
0.167734
0.164953
0.177564
0.175208
0.176934
0.194265
0.183385
0.183086
0.184623
0.186209
0.177171
0.16275
0.146991
0.145501
0.139739
0.140738
0.136533
0.137051
0.137801
0.136934
0.135665
0.136197
0.138629
0.138022
0.160457
0.162723
0.152153
0.154224
0.147873
0.146213
0.146581
0.146502
0.144034
0.145046
0.15186
0.151832
0.150877
0.15029
0.156792
0.155628
0.258975
0.257029
0.230553
0.225556
0.197556
0.194309
0.213988
0.210416
0.221716
0.217763
0.212982
0.208796
0.220092
0.224511
0.209508
0.21429
0.202032
0.206905
0.18889
0.185538
0.19527
0.199123
0.182963
0.182162
0.186236
0.184136
0.176974
0.179745
0.169933
0.167166
0.17267
0.173518
0.158631
0.158335
0.166774
0.168874
0.171112
0.173824
0.178283
0.181569
0.186079
0.189387
0.502105
0.507769
0.444343
0.449844
0.403108
0.3972
0.466017
0.466587
0.4821
0.475972
0.518442
0.524281
0.592047
0.592683
0.580195
0.580064
0.623059
0.617045
0.87738
0.880739
0.90808
0.908703
0.722034
0.721639
0.800843
0.800697
0.169629
0.17352
0.145225
0.145662
0.215859
0.217973
0.177622
0.181601
0.182116
0.177405
0.204281
0.199534
0.71018
0.709282
0.889802
0.890516
0.335161
0.336424
0.306064
0.309447
0.308285
0.305664
0.292199
0.293727
0.292739
0.289123
0.150882
0.15215
0.147133
0.1459
0.14488
0.143875
0.150439
0.149097
0.152929
0.152634
0.160608
0.158603
0.164977
0.167538
0.216497
0.216084
0.178452
0.180766
0.179877
0.185329
0.191203
0.15444
0.154793
0.144029
0.144715
0.141863
0.142413
0.142076
0.142492
0.139484
0.138896
0.179312
0.179073
0.1637
0.16581
0.168915
0.168664
0.149387
0.148277
0.145897
0.144872
0.175699
0.178703
0.178059
0.167987
0.168524
0.170249
0.158416
0.156348
0.155629
0.156291
0.158216
0.169906
0.173341
0.189942
0.158218
0.144208
0.145516
0.136731
0.137252
0.136635
0.13645
0.136853
0.137547
0.158957
0.159125
0.161132
0.158166
0.160164
0.148405
0.146853
0.145517
0.147131
0.144654
0.143164
0.14457
0.144002
0.146284
0.147848
0.154764
0.15418
0.149974
0.14993
0.152498
0.15433
0.233609
0.231217
0.245141
0.247081
0.248211
0.247264
0.227399
0.225076
0.201925
0.19812
0.200637
0.197434
0.210848
0.207213
0.22091
0.224782
0.210221
0.205966
0.21206
0.216768
0.204505
0.209367
0.186206
0.182828
0.188885
0.187405
0.191829
0.194494
0.169752
0.1719
0.169472
0.172247
0.169
0.170528
0.163358
0.163624
0.167117
0.164744
0.165323
0.170551
0.167463
0.184922
0.185031
0.178068
0.174983
0.187836
0.184497
0.223868
0.220501
0.502259
0.502407
0.46073
0.466338
0.455621
0.454853
0.386078
0.391843
0.421155
0.415172
0.434005
0.427813
0.601245
0.607516
0.544894
0.545303
0.53818
0.537835
0.572221
0.566683
0.570479
0.564838
0.602576
0.596774
0.604483
0.610506
0.766546
0.761289
0.869137
0.865342
0.88704
0.88999
0.907668
0.908284
0.908774
0.909414
0.727689
0.727892
0.910714
0.909962
0.910631
0.176943
0.17571
0.144877
0.146245
0.147937
0.141915
0.143713
0.137948
0.136513
0.207352
0.209209
0.186928
0.184328
0.183799
0.180052
0.162213
0.163907
0.165692
0.163782
0.268387
0.276544
0.77507
0.780139
0.728325
0.727428
0.77236
0.771497
0.850612
0.850348
0.295901
0.291385
0.262531
0.265883
0.301407
0.304943
0.312924
0.316504
0.299907
0.302421
0.290642
0.290668
0.291879
0.287463
0.289035
0.158857
0.15711
0.14809
0.149073
0.146633
0.145798
0.146217
0.148951
0.148314
0.147869
0.153737
0.152675
0.159929
0.160259
0.156757
0.155093
0.169899
0.167447
0.211015
0.210306
0.175107
0.17743
0.182756
0.177786
0.156655
0.157424
0.143653
0.143033
0.143552
0.143723
0.142098
0.142888
0.13976
0.140429
0.17391
0.173666
0.168027
0.170356
0.156832
0.1549
0.149346
0.150579
0.14504
0.144034
0.171822
0.168898
0.169004
0.196968
0.200341
0.194966
0.176708
0.178414
0.183882
0.185857
0.187024
0.191651
0.157055
0.154152
0.168131
0.16533
0.137618
0.136604
0.138282
0.138914
0.137688
0.138325
0.136957
0.136402
0.154152
0.154767
0.156592
0.15026
0.148503
0.145112
0.14668
0.142233
0.142367
0.14645
0.145375
0.153879
0.153864
0.152887
0.151738
0.253197
0.255242
0.255213
0.253532
0.242461
0.243519
0.219621
0.222043
0.206991
0.194567
0.191281
0.20736
0.210411
0.218725
0.214693
0.203217
0.207535
0.197376
0.192966
0.179721
0.178906
0.1985
0.201101
0.187358
0.189446
0.178011
0.180139
0.169417
0.167285
0.171783
0.173297
0.169621
0.169114
0.156323
0.156026
0.156034
0.15633
0.163278
0.164665
0.164453
0.188336
0.188412
0.176765
0.173633
0.186613
0.183253
0.507447
0.50762
0.507909
0.50805
0.472225
0.472264
0.455369
0.455387
0.383882
0.378644
0.391658
0.385881
0.421126
0.415115
0.459277
0.465506
0.469843
0.469697
0.524349
0.524335
0.550797
0.551206
0.519925
0.519548
0.62826
0.634143
0.580322
0.580884
0.58724
0.592876
0.565265
0.559587
0.569647
0.563977
0.625696
0.631688
0.601224
0.595218
0.611018
0.604953
0.670575
0.670953
0.869412
0.869657
0.890219
0.887258
0.907444
0.908059
0.896969
0.894048
0.792358
0.797155
0.728016
0.722268
0.801142
0.800991
0.828883
0.828673
0.1531
0.150875
0.150607
0.170872
0.174733
0.153425
0.155815
0.151907
0.148367
0.31299
0.319495
0.145572
0.147577
0.220514
0.222648
0.211205
0.213254
0.175196
0.179443
0.171465
0.173951
0.172464
0.171147
0.245681
0.239914
0.285432
0.284717
0.865086
0.867885
0.702232
0.70132
0.733369
0.734264
0.726522
0.725604
0.872223
0.872003
0.828162
0.827433
0.221422
0.21789
0.384594
0.383624
0.330262
0.328041
0.23255
0.228798
0.275832
0.272446
0.311471
0.308161
0.297813
0.300401
0.298142
0.2957
0.289548
0.291801
0.293425
0.228893
0.148451
0.149729
0.14384
0.144808
0.151134
0.152124
0.153486
0.151902
0.158281
0.157973
0.165271
0.162877
0.165119
0.162896
0.215706
0.215685
0.219662
0.20391
0.205486
0.167966
0.170148
0.187136
0.188881
0.152986
0.151647
0.152166
0.152968
0.146088
0.146584
0.143277
0.140642
0.14134
0.143041
0.143434
0.1702
0.172363
0.175331
0.174466
0.16493
0.162819
0.150643
0.152118
0.159791
0.158586
0.157203
0.166211
0.163815
0.173213
0.170176
0.184209
0.181003
0.181426
0.169046
0.167098
0.170053
0.173288
0.174735
0.180278
0.18213
0.188661
0.193223
0.159918
0.143092
0.143297
0.139325
0.13905
0.137918
0.137361
0.137979
0.137991
0.150712
0.15017
0.155766
0.157296
0.150164
0.14848
0.14689
0.145392
0.147491
0.146911
0.143662
0.143545
0.152169
0.152755
0.244883
0.247173
0.236661
0.238596
0.249472
0.251273
0.246489
0.245762
0.214405
0.216848
0.214183
0.211668
0.201064
0.204816
0.203809
0.200651
0.20236
0.197952
0.192165
0.192855
0.1976
0.199681
0.183133
0.181017
0.179717
0.182477
0.170589
0.169721
0.174695
0.176194
0.16619
0.166628
0.158327
0.158623
0.161105
0.160791
0.161066
0.162501
0.188585
0.189156
0.191813
0.191835
0.181241
0.179971
0.501941
0.50175
0.477923
0.477968
0.466598
0.460971
0.422267
0.416644
0.449339
0.448338
0.375183
0.374103
0.380131
0.38034
0.397639
0.403475
0.409228
0.409354
0.434415
0.428205
0.4641
0.457928
0.602253
0.608166
0.518502
0.518519
0.512061
0.518123
0.512754
0.512464
0.531103
0.530798
0.538549
0.605556
0.599388
0.593168
0.586983
0.579549
0.586912
0.592562
0.565702
0.560043
0.559144
0.558701
0.573832
0.573651
0.579855
0.586068
0.621102
0.615229
0.601939
0.596067
0.611537
0.60545
0.664766
0.658962
0.639611
0.639331
0.872744
0.876395
0.862424
0.866361
0.884171
0.883957
0.903083
0.904891
0.90788
0.908499
0.901645
0.903806
0.792211
0.796981
0.714224
0.714113
0.763098
0.763316
0.811206
0.811385
0.805788
0.805962
0.85848
0.858482
0.909771
0.909775
0.155651
0.153032
0.166053
0.167426
0.151321
0.153295
0.159364
0.161682
0.147852
0.148707
0.151074
0.188847
0.187343
0.133682
0.132594
0.215789
0.219882
0.217837
0.204633
0.202776
0.183819
0.188107
0.160619
0.160618
0.159199
0.158224
0.168192
0.167743
0.177315
0.275547
0.272856
0.277317
0.269208
0.781205
0.780459
0.877292
0.878095
0.752959
0.753618
0.716128
0.715331
0.739254
0.740146
0.86912
0.868744
0.83184
0.832556
0.243053
0.238863
0.230766
0.227091
0.378515
0.37944
0.368627
0.36426
0.350249
0.349772
0.33746
0.338259
0.269115
0.265837
0.310812
0.314462
0.320671
0.323938
0.296268
0.298913
0.303106
0.300607
0.288448
0.286579
0.153455
0.155045
0.152278
0.15374
0.145206
0.144147
0.146766
0.145729
0.154316
0.155439
0.156395
0.156105
0.160793
0.158672
0.162758
0.160784
0.197239
0.197538
0.201381
0.172924
0.173824
0.170793
0.172689
0.182438
0.184602
0.153482
0.155279
0.144284
0.145444
0.141575
0.140854
0.180704
0.179856
0.17192
0.17279
0.144339
0.143516
0.151721
0.150534
0.148154
0.149324
0.177923
0.181519
0.179815
0.168919
0.17034
0.163936
0.161896
0.174247
0.172852
0.171306
0.166242
0.186179
0.185782
0.252468
0.251589
0.164857
0.162492
0.170959
0.175093
0.171854
0.18725
0.189442
0.191014
0.182941
0.184547
0.142163
0.141162
0.141576
0.142086
0.138342
0.138097
0.135108
0.134669
0.134994
0.139924
0.139938
0.138147
0.138451
0.148859
0.148364
0.155024
0.153632
0.153899
0.151996
0.147202
0.148912
0.1454
0.145974
0.240513
0.242935
0.257409
0.261047
0.240603
0.242695
0.230974
0.232899
0.232782
0.236883
0.236847
0.235288
0.218706
0.220594
0.215963
0.21701
0.204095
0.207789
0.189585
0.18882
0.196158
0.19408
0.195115
0.197751
0.177267
0.175126
0.182577
0.185319
0.167789
0.166899
0.166097
0.166334
0.160769
0.161055
0.158888
0.160359
0.18515
0.185715
0.362923
0.36319
0.483672
0.483704
0.48746
0.493245
0.460536
0.466139
0.444294
0.449777
0.416446
0.422288
0.48772
0.488399
0.42008
0.426121
0.387264
0.387881
0.404096
0.397508
0.391532
0.385758
0.421231
0.41515
0.403326
0.397471
0.409144
0.434952
0.428739
0.440621
0.427221
0.433241
0.457506
0.463599
0.63111
0.637025
0.619396
0.61334
0.564574
0.564505
0.529771
0.529564
0.496352
0.49573
0.499902
0.493812
0.540238
0.540701
0.524996
0.52469
0.549368
0.549101
0.610946
0.616929
0.586423
0.585633
0.561018
0.560516
0.57642
0.58193
0.56441
0.570071
0.55545
0.555209
0.586342
0.586582
0.614797
0.620685
0.607227
0.60785
0.592263
0.598403
0.629616
0.623601
0.730871
0.736492
0.646299
0.640489
0.651559
0.651773
0.639835
0.78335
0.788333
0.891312
0.888102
0.868516
0.864738
0.890622
0.887698
0.890575
0.887609
0.896127
0.893423
0.905106
0.903289
0.906986
0.906792
0.904094
0.901904
0.908616
0.909251
0.648193
0.642417
0.761125
0.761301
0.785202
0.785335
0.774411
0.779664
0.81576
0.816
0.80613
0.806293
0.849963
0.849807
0.890747
0.890749
0.911273
0.911662
0.23165
0.230507
0.171834
0.168568
0.170345
0.162852
0.164299
0.160108
0.161257
0.162349
0.155197
0.142998
0.216378
0.219465
0.165485
0.167874
0.134832
0.134406
0.149646
0.147722
0.213677
0.211804
0.179245
0.176378
0.191993
0.187794
0.159435
0.161871
0.15893
0.163504
0.161913
0.161304
0.163781
0.190135
0.186361
0.185898
0.320173
0.320643
0.249795
0.244148
0.382538
0.376073
0.688846
0.688968
0.826993
0.822331
0.876801
0.877605
0.764165
0.758918
0.667745
0.668392
0.721426
0.722219
0.720522
0.719603
0.755655
0.754769
0.78534
0.784536
0.889157
0.889885
0.845049
0.844349
0.892752
0.894993
0.219567
0.216044
0.2235
0.219974
0.331485
0.336108
0.348627
0.353978
0.353881
0.35616
0.352995
0.334485
0.33362
0.246532
0.250557
0.288007
0.291255
0.308567
0.312286
0.318218
0.321601
0.319528
0.316596
0.281873
0.284367
0.299031
0.301576
0.295625
0.297988
0.232341
0.232196
0.15174
0.153422
0.153724
0.155395
0.145948
0.14634
0.14475
0.143818
0.156063
0.157251
0.151378
0.151077
0.160618
0.162764
0.222235
0.221641
0.197543
0.175944
0.142703
0.142122
0.177112
0.177969
0.142755
0.151863
0.153196
0.149493
0.150597
0.16289
0.161516
0.164805
0.162318
0.160534
0.160448
0.17743
0.182243
0.181422
0.201627
0.218183
0.217405
0.162808
0.160257
0.173453
0.171727
0.182241
0.178589
0.195317
0.145346
0.146981
0.15011
0.142475
0.142256
0.141925
0.143259
0.140672
0.141546
0.136371
0.136365
0.135022
0.135258
0.141025
0.14106
0.139391
0.139072
0.150756
0.149655
0.152683
0.152098
0.150095
0.151914
0.221631
0.224045
0.231632
0.234314
0.245451
0.249565
0.253568
0.243303
0.241565
0.244806
0.249326
0.244956
0.240267
0.228084
0.224345
0.229545
0.22228
0.179215
0.177729
0.186265
0.185477
0.201998
0.204553
0.174516
0.172369
0.168976
0.16918
0.162342
0.161674
0.381769
0.386338
0.312023
0.312586
0.575113
0.569259
0.4105
0.404675
0.417067
0.422332
0.477673
0.477464
0.44402
0.449478
0.460946
0.466565
0.455294
0.397671
0.392983
0.476302
0.475538
0.483068
0.489078
0.419202
0.413953
0.385188
0.379981
0.379932
0.380903
0.380229
0.380542
0.374393
0.368658
0.380012
0.409103
0.409102
0.40322
0.39735
0.435594
0.4294
0.439874
0.440199
0.482941
0.476751
0.463718
0.457597
0.620073
0.625892
0.61346
0.619501
0.570149
0.575637
0.56459
0.501026
0.501053
0.544459
0.550357
0.517068
0.517593
0.506564
0.507141
0.506627
0.506349
0.521196
0.52075
0.531423
0.525319
0.543288
0.543002
0.549631
0.62962
0.623674
0.599027
0.605258
0.566165
0.571699
0.593125
0.587551
0.570877
0.571273
0.562373
0.556641
0.567663
0.567474
0.573922
0.626168
0.632148
0.603131
0.597364
0.608426
0.598824
0.592617
0.630683
0.624669
0.617577
0.643702
0.643715
0.646598
0.640772
0.645936
0.646075
0.651848
0.64582
0.760996
0.766252
0.8423
0.842769
0.885685
0.88486
0.887433
0.868835
0.865053
0.870196
0.873868
0.880951
0.877592
0.884536
0.884365
0.896278
0.893549
0.905305
0.903476
0.906585
0.906365
0.893546
0.896508
0.903954
0.901776
0.906493
0.908054
0.683064
0.68878
0.702646
0.708405
0.765911
0.766116
0.750126
0.750191
0.725036
0.719709
0.768814
0.768675
0.785004
0.784961
0.81184
0.807091
0.816222
0.816421
0.8244
0.824166
0.849647
0.849528
0.910841
0.91091
0.911272
0.911437
0.911627
0.246488
0.250353
0.137651
0.139115
0.164567
0.162486
0.165455
0.172652
0.164251
0.163567
0.155026
0.158579
0.160908
0.158487
0.313284
0.319733
0.183201
0.184726
0.147023
0.149166
0.136088
0.135941
0.133345
0.132342
0.137589
0.136752
0.145247
0.146144
0.203684
0.198791
0.181822
0.179171
0.192326
0.194419
0.196377
0.160374
0.16349
0.162637
0.15077
0.148287
0.166049
0.164507
0.169176
0.143034
0.141022
0.14073
0.282729
0.280694
0.27825
0.252139
0.26025
0.448461
0.447174
0.533072
0.533507
0.735979
0.735459
0.826439
0.821763
0.827513
0.822862
0.876324
0.877129
0.855616
0.859334
0.758266
0.763521
0.673419
0.672563
0.727461
0.728248
0.7318
0.732629
0.714473
0.713552
0.752605
0.753474
0.766862
0.765989
0.868642
0.868048
0.886088
0.887856
0.891073
0.891771
0.838974
0.838347
0.84695
0.846492
0.874135
0.877296
0.90114
0.901821
0.226927
0.223185
0.229349
0.232983
0.33447
0.329781
0.355198
0.349906
0.321983
0.319774
0.349364
0.350829
0.332519
0.331197
0.273712
0.278403
0.266922
0.264178
0.306217
0.310006
0.307262
0.303802
0.319564
0.322885
0.313746
0.310979
0.284111
0.281927
0.294422
0.297132
0.29414
0.296552
0.30043
0.302931
0.236823
0.239748
0.149887
0.149423
0.150952
0.15521
0.15686
0.147095
0.147583
0.155187
0.223767
0.232265
0.229856
0.144291
0.143969
0.143609
0.153445
0.155298
0.173492
0.171105
0.155621
0.15777
0.158808
0.167582
0.187616
0.222925
0.222735
0.200215
0.204758
0.205496
0.16503
0.167671
0.180647
0.178972
0.150531
0.151861
0.153238
0.144676
0.145214
0.140099
0.138772
0.141308
0.140801
0.141812
0.142791
0.137144
0.137132
0.135998
0.135777
0.141513
0.141174
0.138915
0.138912
0.151582
0.152781
0.238183
0.235938
0.237076
0.241274
0.251293
0.249131
0.234778
0.23992
0.241244
0.241852
0.219244
0.18087
0.182344
0.176568
0.175736
0.192753
0.190673
0.163407
0.163768
0.288586
0.285263
0.248725
0.249614
0.316943
0.317155
0.558242
0.558433
0.558693
0.558814
0.404629
0.399177
0.44431
0.449829
0.447396
0.441799
0.399905
0.395226
0.489397
0.489455
0.472131
0.477823
0.45517
0.45498
0.460862
0.466475
0.398358
0.393719
0.470268
0.469459
0.482347
0.481627
0.446389
0.440834
0.387994
0.382804
0.386576
0.38138
0.381775
0.376261
0.3963
0.402996
0.373015
0.371943
0.379985
0.380054
0.368903
0.374619
0.415107
0.421149
0.44115
0.441773
0.433334
0.427227
0.476447
0.482619
0.463883
0.457736
0.630833
0.636757
0.631859
0.637737
0.613621
0.619632
0.570453
0.570437
0.546912
0.546746
0.506867
0.506844
0.516982
0.522842
0.509331
0.509826
0.51151
0.510966
0.495095
0.494454
0.490377
0.489921
0.54616
0.546611
0.532918
0.533344
0.531764
0.532125
0.519199
0.518876
0.549894
0.55017
0.5372
0.536901
0.604574
0.598791
0.62339
0.629324
0.59871
0.605011
0.563005
0.562569
0.575692
0.581297
0.587463
0.593079
0.592155
0.586502
0.562715
0.556995
0.561543
0.561332
0.625189
0.631195
0.603605
0.597856
0.612639
0.606591
0.599282
0.592998
0.618655
0.618115
0.730797
0.736439
0.669241
0.674988
0.652021
0.652355
0.657583
0.657335
0.645661
0.645412
0.782878
0.787868
0.851743
0.855795
0.902724
0.903157
0.877465
0.8738
0.873128
0.873392
0.876046
0.872503
0.874808
0.871218
0.874076
0.870384
0.881153
0.877806
0.88745
0.890416
0.906694
0.90731
0.90549
0.903648
0.896705
0.893725
0.904227
0.90203
0.909065
0.909713
0.909322
0.90998
0.671783
0.671852
0.68884
0.683127
0.708571
0.702868
0.766293
0.766461
0.733883
0.733763
0.724719
0.719543
0.774286
0.774235
0.769007
0.763604
0.795434
0.790254
0.784915
0.784867
0.811014
0.810809
0.834059
0.833425
0.854134
0.854198
0.885001
0.881565
0.876288
0.87627
0.905207
0.90526
0.910538
0.254301
0.25817
0.222935
0.227813
0.140611
0.142325
0.177686
0.177147
0.157229
0.16014
0.167356
0.168919
0.152667
0.151829
0.15003
0.150485
0.15712
0.155093
0.142955
0.140625
0.245994
0.24847
0.225228
0.222777
0.18194
0.179356
0.166648
0.169904
0.147724
0.145653
0.137201
0.137302
0.137437
0.136809
0.133196
0.132317
0.138348
0.139726
0.132982
0.133656
0.143215
0.143638
0.191423
0.194672
0.193447
0.181841
0.19004
0.18577
0.172738
0.168619
0.159735
0.157513
0.155719
0.153483
0.151871
0.15539
0.183699
0.181881
0.186759
0.154808
0.154606
0.174137
0.172878
0.289469
0.286021
0.284797
0.281567
0.251564
0.255648
0.278675
0.270683
0.30985
0.309296
0.378722
0.373986
0.330687
0.33228
0.730018
0.723963
0.720923
0.71461
0.791803
0.786541
0.795944
0.801113
0.868277
0.865484
0.875844
0.87535
0.862862
0.866173
0.739218
0.733719
0.68275
0.683271
0.64455
0.645425
0.692454
0.691579
0.776084
0.771439
0.722991
0.716902
0.715382
0.716281
0.708376
0.707456
0.766487
0.767313
0.74772
0.746849
0.761294
0.760412
0.808755
0.807993
0.858359
0.857811
0.888527
0.886793
0.827189
0.827836
0.834754
0.834086
0.843049
0.842486
0.851216
0.879828
0.882796
0.900675
0.901351
0.225035
0.228744
0.382605
0.38154
0.306925
0.302339
0.334582
0.329213
0.378666
0.383656
0.313343
0.311017
0.321743
0.319497
0.345856
0.347709
0.344595
0.343445
0.342863
0.342674
0.331539
0.331994
0.273012
0.277758
0.270415
0.267861
0.283531
0.287244
0.296397
0.293319
0.294569
0.297949
0.316649
0.320095
0.322129
0.325302
0.310383
0.313189
0.305494
0.308126
0.286706
0.284281
0.291183
0.293691
0.297454
0.295067
0.247704
0.242824
0.233402
0.152238
0.150964
0.231134
0.233967
0.174597
0.176916
0.156144
0.154377
0.142782
0.194689
0.189693
0.182352
0.169423
0.166792
0.160797
0.239286
0.234009
0.223988
0.219328
0.206862
0.212867
0.167368
0.165548
0.14873
0.150255
0.147233
0.143808
0.141266
0.141669
0.143114
0.144272
0.139871
0.140938
0.137577
0.137293
0.135666
0.135687
0.140079
0.140408
0.228891
0.22661
0.238633
0.236078
0.23837
0.236958
0.184103
0.185572
0.282291
0.285749
0.214433
0.210853
0.276324
0.271155
0.359034
0.353885
0.357186
0.357478
0.588005
0.58833
0.565099
0.565237
0.519138
0.52484
0.486426
0.492367
0.393773
0.465377
0.465109
0.477938
0.477972
0.48936
0.495148
0.397349
0.392533
0.404546
0.403729
0.395724
0.396049
0.495173
0.495236
0.483644
0.483695
0.449662
0.444193
0.432151
0.437502
0.394747
0.389837
0.464242
0.463385
0.477068
0.485156
0.491045
0.439936
0.445533
0.389411
0.384229
0.402116
0.396913
0.392142
0.393092
0.382724
0.377398
0.396393
0.403312
0.375698
0.370081
0.391407
0.385712
0.374273
0.368533
0.478454
0.479006
0.454167
0.447966
0.452623
0.446408
0.451983
0.4458
0.433248
0.427171
0.445346
0.45142
0.464365
0.458171
0.470034
0.606848
0.600598
0.631575
0.637467
0.631744
0.637627
0.58673
0.585628
0.590166
0.57637
0.57641
0.552807
0.552667
0.500681
0.500839
0.540133
0.53978
0.518412
0.51849
0.499054
0.498583
0.514756
0.520706
0.501718
0.502307
0.512614
0.513164
0.50051
0.501117
0.494361
0.494121
0.552027
0.55247
0.526851
0.527287
0.525666
0.526038
0.518576
0.550472
0.544536
0.543578
0.53751
0.62771
0.633634
0.623118
0.629035
0.610787
0.616717
0.582244
0.587426
0.568444
0.568917
0.572928
0.56728
0.581649
0.576074
0.580884
0.575273
0.567987
0.568341
0.578921
0.582621
0.578045
0.613216
0.619196
0.632977
0.627019
0.608943
0.609397
0.600477
0.594241
0.62414
0.630157
0.655704
0.655687
0.668311
0.673933
0.653144
0.647296
0.663232
0.66704
0.662341
0.657991
0.640242
0.640036
0.70418
0.709957
0.724387
0.718532
0.781328
0.77626
0.794486
0.794103
0.849328
0.853313
0.892778
0.890652
0.890962
0.87019
0.866337
0.869867
0.866032
0.876751
0.877039
0.872172
0.875688
0.86648
0.862303
0.874303
0.870618
0.881345
0.878024
0.904409
0.902609
0.90613
0.905879
0.897184
0.894286
0.896839
0.893894
0.899316
0.899208
0.908447
0.909078
0.908924
0.909568
0.909198
0.909851
0.642852
0.642854
0.682998
0.688715
0.655295
0.655227
0.76095
0.760768
0.722534
0.722423
0.733742
0.742012
0.747496
0.779702
0.779719
0.763759
0.769107
0.790175
0.795323
0.806108
0.801449
0.825043
0.824688
0.839606
0.840111
0.854306
0.854426
0.883443
0.883544
0.910201
0.910137
0.868603
0.868583
0.902688
0.902749
0.341455
0.337032
0.169922
0.168052
0.171296
0.211899
0.217511
0.144158
0.142296
0.152188
0.154677
0.153647
0.150925
0.162972
0.160353
0.16695
0.16677
0.167875
0.169313
0.164909
0.148598
0.330708
0.33642
0.232929
0.233441
0.215076
0.211881
0.217493
0.216507
0.159314
0.16188
0.173623
0.176812
0.174177
0.17184
0.164084
0.167304
0.145654
0.147736
0.149931
0.138592
0.138717
0.132522
0.132348
0.136364
0.135201
0.134155
0.140666
0.141335
0.142577
0.138565
0.140024
0.136218
0.135426
0.136832
0.135489
0.218585
0.218793
0.19574
0.200102
0.188864
0.190187
0.186925
0.182448
0.18476
0.175513
0.180953
0.165044
0.162405
0.167526
0.156768
0.18597
0.191466
0.233007
0.228768
0.151186
0.161137
0.156571
0.334205
0.336015
0.290942
0.287519
0.27893
0.277206
0.281556
0.254555
0.252919
0.29311
0.295901
0.286676
0.621184
0.627176
0.373408
0.378138
0.338864
0.33738
0.5477
0.540202
0.663795
0.664228
0.708236
0.708312
0.779818
0.785251
0.785809
0.791087
0.817048
0.812184
0.830123
0.834603
0.875862
0.876668
0.861018
0.857323
0.866709
0.863405
0.78603
0.791019
0.750072
0.755423
0.691604
0.697187
0.682327
0.661397
0.662082
0.677617
0.676812
0.67171
0.696046
0.695142
0.731193
0.731921
0.729013
0.721431
0.722329
0.758299
0.759165
0.767735
0.768607
0.789822
0.790624
0.841228
0.840585
0.884482
0.883845
0.872721
0.869607
0.886069
0.885396
0.892322
0.893011
0.799772
0.799054
0.839632
0.835439
0.847547
0.843678
0.89707
0.897724
0.895454
0.8932
0.24237
0.246429
0.234773
0.230793
0.357289
0.357454
0.376424
0.377502
0.299829
0.295401
0.297809
0.293335
0.368374
0.373908
0.377337
0.382384
0.309247
0.306869
0.317512
0.31523
0.338776
0.336854
0.346417
0.344901
0.353995
0.354593
0.346555
0.346263
0.335667
0.335604
0.328853
0.328874
0.219056
0.215443
0.231225
0.234941
0.291363
0.295557
0.255985
0.259232
0.289985
0.286353
0.298728
0.29573
0.300426
0.297127
0.303852
0.306919
0.313238
0.316352
0.321529
0.324745
0.30419
0.306876
0.310829
0.313611
0.277162
0.279468
0.28694
0.289586
0.295291
0.292838
0.23653
0.235883
0.237244
0.239044
0.231241
0.233441
0.23474
0.237415
0.197376
0.199648
0.174817
0.172489
0.14747
0.147722
0.148607
0.144422
0.143467
0.186962
0.19219
0.179536
0.180472
0.171272
0.168795
0.227306
0.226662
0.228156
0.230026
0.209446
0.214416
0.211808
0.148613
0.146528
0.139218
0.138712
0.140425
0.140107
0.142037
0.136507
0.136762
0.233764
0.231644
0.279095
0.282732
0.217342
0.213838
0.277584
0.272465
0.374736
0.36948
0.322746
0.322565
0.552303
0.552498
0.568003
0.573684
0.582491
0.58275
0.564927
0.524624
0.524742
0.519248
0.519349
0.48605
0.492006
0.403812
0.409807
0.385165
0.379836
0.472226
0.472264
0.483594
0.488327
0.494144
0.419965
0.414655
0.409081
0.411858
0.407809
0.40087
0.400503
0.489288
0.495058
0.483173
0.483385
0.48354
0.427889
0.427841
0.42687
0.411499
0.40654
0.443357
0.442512
0.47108
0.465104
0.479284
0.456028
0.461799
0.42666
0.432245
0.393179
0.394593
0.393943
0.398788
0.390336
0.391749
0.39268
0.396799
0.392573
0.415444
0.421629
0.385978
0.390812
0.387624
0.376635
0.370938
0.385703
0.391454
0.465065
0.464686
0.447358
0.453572
0.446067
0.452268
0.433478
0.427341
0.439348
0.451484
0.445382
0.470273
0.470557
0.586455
0.581006
0.611959
0.617989
0.619584
0.625469
0.62602
0.620219
0.613836
0.619792
0.592003
0.597533
0.582363
0.582453
0.57039
0.576198
0.517347
0.517082
0.512497
0.51235
0.506774
0.500954
0.558204
0.558357
0.535867
0.535947
0.500678
0.500456
0.500183
0.499857
0.535685
0.535207
0.50827
0.507711
0.515254
0.515729
0.498073
0.497528
0.505412
0.504846
0.518653
0.519181
0.497067
0.490873
0.48823
0.488011
0.55081
0.551185
0.522642
0.522146
0.527746
0.521664
0.526434
0.520326
0.544194
0.543878
0.609791
0.615614
0.627999
0.633899
0.635215
0.635527
0.61769
0.611659
0.578445
0.577515
0.592924
0.592232
0.57435
0.574867
0.562077
0.56155
0.584719
0.590294
0.574819
0.580407
0.563116
0.557399
0.567764
0.562115
0.567784
0.561716
0.573171
0.573418
0.619727
0.613782
0.626613
0.632582
0.605992
0.612076
0.690635
0.684703
0.677663
0.682452
0.678961
0.658503
0.664234
0.641418
0.641087
0.66441
0.664153
0.664476
0.651796