/*--------------------------------*- C++ -*----------------------------------*\
  =========                 |
  \\      /  F ield         | OpenFOAM: The Open Source CFD Toolbox
   \\    /   O peration     | Website:  https://openfoam.org
    \\  /    A nd           | Version:  7
     \\/     M anipulation  |
\*---------------------------------------------------------------------------*/
FoamFile
{
    version     2.0;
    format      ascii;
    class       volScalarField;
    location    "1620";
    object      T;
}
// * * * * * * * * * * * * * * * * * * * * * * * * * * * * * * * * * * * * * //

dimensions      [0 0 0 1 0 0 0];

internalField   nonuniform List<scalar> 
238806
(
0.396331
0.398863
0.430936
0.434537
0.428498
0.406527
0.406034
0.396713
0.394444
0.435878
0.437899
0.42417
0.477634
0.479789
0.481912
0.474479
0.439388
0.441892
0.379845
0.379577
0.463365
0.467266
0.474991
0.476961
0.481686
0.435194
0.438504
0.439586
0.446941
0.44541
0.380631
0.379424
0.460515
0.45489
0.44823
0.443422
0.986492
0.986652
0.432626
0.430358
0.434035
0.439717
0.386019
0.385
0.380837
0.381215
0.486251
0.478897
0.449422
0.444109
0.420823
0.419278
0.472507
0.474712
0.93371
0.933378
0.433763
0.430438
0.430667
0.424752
0.427267
0.429606
0.428339
0.429692
0.426306
0.381905
0.382179
0.392432
0.394234
0.406092
0.408768
0.461653
0.467348
0.44759
0.452733
0.430366
0.432749
0.448436
0.443665
0.791519
0.791031
0.442609
0.4372
0.397869
0.396793
0.417998
0.421143
0.448858
0.445869
0.443093
0.445697
0.421645
0.424376
0.389526
0.390599
0.430154
0.426694
0.429387
0.434011
0.438984
0.382655
0.391612
0.392859
0.394631
0.394141
0.503418
0.508183
0.455011
0.459983
0.458165
0.463848
0.431566
0.428602
0.423054
0.424552
0.475905
0.47075
0.987103
0.987068
0.987205
0.48115
0.488638
0.400957
0.402129
0.404304
0.403811
0.48842
0.489333
0.454543
0.453077
0.427553
0.4463
0.449129
0.446245
0.421334
0.418273
0.389953
0.388639
0.468234
0.472789
0.470527
0.468142
0.424846
0.387169
0.388166
0.387921
0.389067
0.394993
0.393668
0.402039
0.403852
0.413728
0.415605
0.500378
0.506019
0.467228
0.471978
0.465315
0.470983
0.467956
0.471789
0.434349
0.436682
0.419245
0.420586
0.449395
0.444539
0.765508
0.765992
0.986444
0.986604
0.446736
0.44159
0.600247
0.601727
0.601738
0.398821
0.399942
0.424914
0.426465
0.497513
0.497489
0.452569
0.445245
0.441791
0.442806
0.397086
0.397826
0.388179
0.387036
0.386284
0.385242
0.398749
0.40021
0.431655
0.427344
0.426986
0.453537
0.452853
0.430798
0.432317
0.381206
0.380419
0.388781
0.390538
0.390493
0.392095
0.413712
0.417141
0.406534
0.404705
0.554673
0.552841
0.515764
0.521595
0.490577
0.484434
0.472391
0.466327
0.456266
0.451222
0.43194
0.435106
0.425628
0.423028
0.424261
0.423011
0.448543
0.443703
0.68998
0.684402
0.866723
0.863114
0.862756
0.858973
0.951935
0.953746
0.40145
0.398094
0.413638
0.408821
0.504098
0.511228
0.630015
0.633883
0.403163
0.404311
0.419917
0.418451
0.425191
0.428565
0.442333
0.445951
0.473433
0.471772
0.436287
0.432848
0.389944
0.388979
0.389079
0.387965
0.388659
0.387415
0.44171
0.441329
0.401516
0.399601
0.431347
0.433334
0.46284
0.46866
0.422205
0.455581
0.413045
0.416137
0.41106
0.381857
0.382721
0.384664
0.385732
0.390909
0.389707
0.399883
0.396986
0.399097
0.398923
0.405155
0.406128
0.520527
0.523986
0.500105
0.496505
0.519742
0.525404
0.504292
0.510637
0.476967
0.483251
0.469781
0.476008
0.469114
0.474724
0.476399
0.478726
0.442463
0.446608
0.431092
0.432478
0.426591
0.429052
0.474602
0.473738
0.454314
0.453461
0.455226
0.459964
0.758458
0.753956
0.71707
0.711685
0.778417
0.783133
0.795606
0.796066
0.879548
0.879268
0.953775
0.951954
0.987327
0.450884
0.446172
0.489312
0.482285
0.928173
0.930734
0.520061
0.51534
0.602954
0.605589
0.40564
0.407959
0.402325
0.401795
0.423133
0.421622
0.431313
0.434967
0.458234
0.457834
0.45987
0.462241
0.406483
0.403213
0.389827
0.389677
0.393066
0.394051
0.393782
0.38712
0.388335
0.434152
0.433747
0.41252
0.409791
0.402311
0.400794
0.439979
0.44489
0.478068
0.410664
0.414209
0.440864
0.4358
0.42769
0.424036
0.424857
0.427261
0.39515
0.397094
0.382933
0.382109
0.384764
0.385168
0.385546
0.387016
0.387071
0.38857
0.431514
0.427684
0.420313
0.416914
0.396566
0.397157
0.394873
0.395836
0.404502
0.404611
0.407538
0.409394
0.417974
0.421306
0.547043
0.5491
0.49422
0.489934
0.523792
0.529286
0.508047
0.514223
0.493383
0.500129
0.482651
0.48961
0.473046
0.478583
0.473663
0.471512
0.446343
0.450458
0.428428
0.426988
0.443336
0.438585
0.458263
0.45331
0.459296
0.458448
0.450607
0.73514
0.730656
0.690047
0.684495
0.728141
0.733383
0.7439
0.738611
0.863194
0.866822
0.851976
0.848645
0.872548
0.87593
0.975935
0.97588
0.88918
0.886128
0.421368
0.41908
0.422386
0.495086
0.497948
0.494896
0.498871
0.496816
0.494407
0.931264
0.930924
0.575867
0.580118
0.59678
0.599189
0.603446
0.603609
0.521582
0.520714
0.402161
0.400715
0.405975
0.407512
0.414485
0.414031
0.421907
0.439014
0.438689
0.442719
0.463889
0.469294
0.469156
0.46731
0.392685
0.394639
0.392537
0.390855
0.391877
0.390586
0.391396
0.38675
0.385679
0.449781
0.449414
0.435034
0.43873
0.427146
0.430581
0.401237
0.403203
0.435195
0.430835
0.450177
0.446811
0.44945
0.474895
0.458848
0.458503
0.460697
0.463099
0.449713
0.427661
0.402113
0.399502
0.38939
0.391276
0.38338
0.384358
0.385798
0.384153
0.381761
0.382776
0.387367
0.386247
0.424498
0.428169
0.411008
0.414466
0.403896
0.401014
0.401766
0.401625
0.397179
0.39891
0.410853
0.410801
0.409135
0.408167
0.418942
0.417081
0.563694
0.561202
0.525779
0.518954
0.480584
0.476005
0.503706
0.49882
0.514208
0.508849
0.502047
0.496267
0.511864
0.517871
0.496982
0.503618
0.486241
0.493109
0.467851
0.463022
0.477088
0.482535
0.460049
0.458913
0.464524
0.461512
0.450376
0.454446
0.439291
0.435092
0.444417
0.445661
0.422122
0.421652
0.435024
0.438389
0.441885
0.446142
0.45313
0.458106
0.464796
0.46971
0.798517
0.802606
0.753969
0.758462
0.716989
0.711582
0.770489
0.770955
0.783225
0.778491
0.810199
0.814273
0.85802
0.858408
0.850931
0.850892
0.876208
0.872817
0.979119
0.97999
0.986657
0.986819
0.924792
0.924624
0.955714
0.955671
0.439041
0.445028
0.40035
0.400868
0.50841
0.511413
0.45232
0.458303
0.458965
0.451836
0.491617
0.484693
0.921549
0.921191
0.982911
0.98309
0.652032
0.653481
0.620013
0.623822
0.623447
0.620503
0.605049
0.606812
0.605711
0.601442
0.407798
0.409869
0.401349
0.399196
0.397448
0.395612
0.40731
0.404976
0.411631
0.411147
0.424057
0.420768
0.430957
0.435101
0.506124
0.505493
0.451542
0.455078
0.453492
0.461617
0.47024
0.413622
0.41416
0.395842
0.397074
0.392056
0.392896
0.392334
0.393068
0.387385
0.386257
0.453992
0.453629
0.429452
0.43285
0.437863
0.437471
0.405374
0.40344
0.399225
0.397428
0.447237
0.451887
0.450708
0.435468
0.436708
0.439406
0.420855
0.417269
0.416484
0.417541
0.420656
0.438758
0.443937
0.468527
0.420512
0.397288
0.399609
0.383747
0.384715
0.383605
0.383266
0.384016
0.385263
0.422241
0.422478
0.425777
0.420834
0.423944
0.404564
0.401888
0.399838
0.402663
0.398283
0.395665
0.398178
0.397196
0.400963
0.403837
0.415691
0.414749
0.40764
0.407561
0.411693
0.414761
0.530146
0.526898
0.545559
0.548121
0.549713
0.548456
0.52158
0.51836
0.486589
0.481245
0.485039
0.480556
0.499302
0.494297
0.513195
0.518413
0.498144
0.492233
0.500606
0.507108
0.489815
0.496629
0.463846
0.458945
0.468686
0.466589
0.472661
0.476422
0.439469
0.442687
0.438732
0.442907
0.438525
0.440811
0.429801
0.430199
0.435745
0.431895
0.432765
0.441177
0.436329
0.463133
0.463259
0.452748
0.448009
0.467455
0.462478
0.517333
0.512728
0.798641
0.798753
0.767186
0.771611
0.76221
0.761551
0.701461
0.706861
0.733244
0.727977
0.744146
0.738838
0.863305
0.866955
0.82823
0.828524
0.823632
0.823429
0.84584
0.842344
0.844712
0.84113
0.864288
0.860857
0.865618
0.869115
0.9434
0.941359
0.97685
0.975817
0.981594
0.982332
0.986579
0.98674
0.986784
0.98695
0.927257
0.927337
0.987092
0.986912
0.987072
0.450281
0.448378
0.39958
0.401663
0.404935
0.395044
0.398204
0.387578
0.385186
0.496185
0.498884
0.466546
0.462717
0.46167
0.45607
0.428073
0.430728
0.433589
0.430573
0.577595
0.587515
0.947367
0.94924
0.929438
0.929098
0.947037
0.946751
0.972306
0.972251
0.60703
0.601821
0.567473
0.571652
0.614428
0.618453
0.627703
0.631664
0.613878
0.616748
0.603195
0.603223
0.604636
0.599419
0.601273
0.421001
0.418185
0.402978
0.404518
0.400664
0.399231
0.399839
0.404592
0.403543
0.40281
0.41285
0.411105
0.423379
0.423893
0.417739
0.415049
0.438648
0.434754
0.498486
0.497489
0.446547
0.450135
0.457766
0.450457
0.417362
0.41855
0.39516
0.394039
0.394807
0.395091
0.392351
0.39381
0.38793
0.389205
0.445687
0.445312
0.436388
0.44007
0.417738
0.414647
0.405263
0.407394
0.397682
0.395857
0.441508
0.436887
0.436871
0.478724
0.483595
0.47573
0.44926
0.451862
0.459865
0.462789
0.464298
0.471074
0.418664
0.413761
0.435889
0.431616
0.385346
0.383432
0.386683
0.387843
0.385575
0.386746
0.384226
0.383178
0.414682
0.41566
0.41841
0.407815
0.404816
0.39916
0.401916
0.394033
0.394274
0.40141
0.39956
0.414258
0.414228
0.412424
0.410549
0.55617
0.558813
0.558863
0.556686
0.542005
0.543421
0.510861
0.514246
0.493101
0.476227
0.47156
0.494757
0.498933
0.510075
0.504574
0.488289
0.494322
0.47964
0.473344
0.455159
0.45399
0.482365
0.485977
0.466316
0.469284
0.45225
0.455355
0.438802
0.435583
0.442878
0.445122
0.439741
0.438957
0.418299
0.417835
0.417854
0.418329
0.429533
0.431676
0.431506
0.468197
0.468271
0.4508
0.445974
0.465665
0.460645
0.80233
0.80248
0.802719
0.802824
0.776206
0.776225
0.762921
0.762924
0.699417
0.694427
0.706611
0.701196
0.733157
0.727863
0.76509
0.770079
0.773692
0.773639
0.814373
0.81434
0.832132
0.83242
0.810979
0.810745
0.87887
0.882097
0.850906
0.851262
0.855092
0.858495
0.841409
0.837763
0.844185
0.840575
0.877531
0.880843
0.863532
0.859967
0.869369
0.865851
0.90114
0.901314
0.976916
0.976974
0.982378
0.981638
0.986537
0.986697
0.983946
0.983234
0.952676
0.954372
0.927384
0.924889
0.955804
0.955759
0.965022
0.964964
0.413493
0.409726
0.409317
0.440968
0.446839
0.413752
0.417505
0.411231
0.405163
0.628692
0.635857
0.401118
0.404553
0.515006
0.517993
0.50178
0.504731
0.448551
0.454977
0.442501
0.446414
0.444058
0.442079
0.549047
0.541515
0.598141
0.59728
0.97708
0.977827
0.918056
0.917686
0.931602
0.931935
0.928754
0.928406
0.978445
0.978407
0.965522
0.965319
0.514219
0.509399
0.700681
0.699632
0.645843
0.643346
0.528921
0.52393
0.583939
0.579812
0.626232
0.622525
0.611277
0.614253
0.611943
0.609141
0.601736
0.604393
0.606451
0.523209
0.403676
0.405873
0.395632
0.397351
0.40846
0.410118
0.412541
0.409834
0.420631
0.420148
0.431387
0.42742
0.431274
0.427865
0.504973
0.505012
0.510548
0.488457
0.490684
0.435436
0.438849
0.46432
0.46695
0.411402
0.408984
0.410009
0.41123
0.399479
0.400344
0.394479
0.389621
0.390911
0.394108
0.394763
0.43947
0.442874
0.447829
0.446528
0.431482
0.42807
0.407463
0.409935
0.422734
0.420589
0.418406
0.432772
0.428828
0.443505
0.438828
0.460075
0.455379
0.455803
0.43759
0.434735
0.43929
0.444166
0.446374
0.454551
0.457344
0.466707
0.473383
0.423145
0.395165
0.395479
0.38866
0.388168
0.385951
0.384934
0.386178
0.386208
0.408828
0.407947
0.417252
0.41975
0.407469
0.404622
0.402042
0.399394
0.403306
0.402327
0.396603
0.396393
0.411362
0.412319
0.545193
0.548205
0.534197
0.53681
0.551313
0.553668
0.547417
0.546447
0.503644
0.50709
0.503214
0.499673
0.485504
0.490741
0.489587
0.485201
0.486885
0.480657
0.473725
0.474683
0.481296
0.48418
0.459878
0.456819
0.454566
0.458588
0.441106
0.439818
0.447389
0.44959
0.434335
0.435018
0.421632
0.422089
0.42616
0.425665
0.425946
0.428188
0.468587
0.469438
0.473302
0.473294
0.457576
0.45569
0.798378
0.798211
0.780591
0.780613
0.771813
0.767378
0.735392
0.730521
0.757441
0.756546
0.690888
0.689793
0.69574
0.696019
0.712225
0.717559
0.722676
0.722865
0.744493
0.739175
0.76904
0.76408
0.863951
0.867385
0.810272
0.810309
0.805379
0.8097
0.805987
0.805832
0.818901
0.818741
0.823857
0.866006
0.862396
0.858705
0.854983
0.850418
0.854894
0.858309
0.841697
0.838068
0.837468
0.837176
0.847013
0.846945
0.850807
0.854622
0.87491
0.871584
0.863931
0.860453
0.86963
0.866103
0.898147
0.895192
0.885073
0.884932
0.978102
0.979062
0.975101
0.976181
0.980858
0.980814
0.985489
0.985922
0.986619
0.986781
0.985107
0.985623
0.952624
0.954311
0.921424
0.921388
0.94181
0.941904
0.959241
0.959296
0.957423
0.957475
0.973844
0.973851
0.986866
0.986868
0.417364
0.413162
0.433611
0.435727
0.410217
0.413452
0.423097
0.42671
0.404457
0.405722
0.409935
0.47007
0.467852
0.380038
0.378014
0.508249
0.514096
0.511133
0.492311
0.489583
0.461553
0.467926
0.425663
0.425557
0.423438
0.421682
0.437529
0.436819
0.451539
0.587807
0.584344
0.58846
0.578612
0.950583
0.950345
0.98016
0.980352
0.938438
0.938671
0.923898
0.923586
0.93404
0.934367
0.97762
0.977541
0.966685
0.966881
0.542833
0.537412
0.526748
0.521841
0.694783
0.695803
0.686281
0.682025
0.668073
0.667595
0.654676
0.655604
0.575719
0.571657
0.625203
0.629263
0.636876
0.640415
0.609366
0.612421
0.617611
0.614767
0.600514
0.598297
0.412181
0.41489
0.410167
0.412586
0.39804
0.396154
0.400853
0.398992
0.413892
0.415712
0.417491
0.417032
0.424184
0.420806
0.427531
0.424452
0.478886
0.479408
0.484973
0.443001
0.444429
0.439846
0.442866
0.457428
0.460708
0.412106
0.415133
0.396297
0.398372
0.391303
0.390023
0.456057
0.454803
0.442565
0.443885
0.396488
0.394977
0.409415
0.407379
0.403225
0.405183
0.450751
0.456168
0.45352
0.43701
0.439192
0.429226
0.425876
0.445172
0.44295
0.440673
0.432853
0.462972
0.462371
0.555394
0.554241
0.431183
0.427553
0.440649
0.446763
0.441889
0.464788
0.467944
0.470265
0.45834
0.460718
0.393775
0.391793
0.392681
0.393458
0.386827
0.386386
0.380678
0.379892
0.380423
0.389815
0.389834
0.386504
0.387066
0.405652
0.404842
0.415859
0.413672
0.413707
0.41054
0.402659
0.405605
0.399674
0.400653
0.539388
0.542604
0.561596
0.566332
0.539504
0.542294
0.526433
0.529061
0.528875
0.534393
0.534405
0.532274
0.509451
0.512129
0.505654
0.507216
0.489856
0.494978
0.469888
0.468822
0.479101
0.476197
0.477464
0.481154
0.450976
0.447825
0.458896
0.462861
0.436706
0.43537
0.43418
0.434525
0.425621
0.426054
0.422391
0.424712
0.463493
0.46434
0.679005
0.67935
0.784899
0.784953
0.78767
0.791993
0.76701
0.771434
0.753926
0.758405
0.730357
0.735419
0.787445
0.787997
0.732283
0.73754
0.702473
0.703116
0.717879
0.711855
0.706427
0.701012
0.733159
0.727803
0.717347
0.711993
0.722537
0.744959
0.739644
0.749737
0.738589
0.743753
0.763904
0.768802
0.880409
0.883623
0.873678
0.870244
0.840837
0.840755
0.818145
0.817999
0.794075
0.793569
0.796539
0.792023
0.824954
0.825268
0.81466
0.814498
0.831248
0.831119
0.86911
0.872525
0.854635
0.854144
0.838723
0.838386
0.848439
0.851848
0.840852
0.844452
0.835249
0.835138
0.854745
0.854851
0.87135
0.874689
0.867046
0.867386
0.858373
0.862039
0.879816
0.876475
0.928745
0.931126
0.888614
0.885518
0.891423
0.891522
0.885184
0.949869
0.951676
0.982539
0.981739
0.976698
0.975668
0.982432
0.981702
0.982447
0.981706
0.983812
0.98315
0.985963
0.985529
0.986392
0.986355
0.985674
0.985151
0.986755
0.98692
0.889177
0.886107
0.940993
0.941061
0.950142
0.950183
0.946194
0.948157
0.960769
0.960842
0.957525
0.957575
0.971379
0.971339
0.982318
0.982321
0.987226
0.987327
0.528817
0.527247
0.442543
0.437546
0.44021
0.428652
0.430907
0.42429
0.426084
0.427844
0.41644
0.396108
0.509299
0.513631
0.434131
0.437819
0.382169
0.381384
0.408055
0.404897
0.505259
0.502572
0.454955
0.450641
0.4738
0.467604
0.423649
0.427644
0.422982
0.430175
0.42761
0.426642
0.430507
0.470953
0.465284
0.464485
0.6399
0.640417
0.554398
0.547074
0.700428
0.694225
0.913002
0.91306
0.96605
0.964602
0.98005
0.980241
0.942817
0.940771
0.901112
0.901394
0.926246
0.92655
0.926178
0.925823
0.940659
0.94035
0.951481
0.951224
0.982771
0.982954
0.97063
0.970446
0.983283
0.983835
0.511724
0.5069
0.517003
0.512209
0.64701
0.65189
0.664097
0.669539
0.671747
0.674007
0.670847
0.651652
0.650644
0.547112
0.552248
0.598852
0.602676
0.622543
0.6267
0.633969
0.63766
0.635856
0.632653
0.592076
0.595071
0.612787
0.615702
0.60901
0.611733
0.527925
0.527717
0.409284
0.41224
0.41262
0.41534
0.39937
0.400059
0.397235
0.395547
0.41683
0.418734
0.408969
0.408465
0.423941
0.427447
0.514025
0.513191
0.47934
0.447809
0.393424
0.392355
0.450609
0.451889
0.393582
0.409606
0.41186
0.405589
0.407287
0.427297
0.425126
0.4305
0.426682
0.423762
0.423552
0.449982
0.457157
0.455823
0.485346
0.508707
0.507598
0.427921
0.423962
0.444242
0.441576
0.457375
0.451974
0.476468
0.39924
0.401982
0.407449
0.394154
0.393859
0.393332
0.395838
0.390985
0.392494
0.383128
0.383112
0.380534
0.380971
0.391835
0.391885
0.388818
0.388235
0.408746
0.406955
0.412159
0.411224
0.407436
0.410506
0.513784
0.517134
0.52752
0.531141
0.545921
0.551332
0.556578
0.543115
0.540793
0.545141
0.551185
0.545359
0.539017
0.522425
0.51745
0.524542
0.514499
0.454203
0.452044
0.464979
0.463872
0.487382
0.490902
0.446747
0.443557
0.438731
0.439021
0.428085
0.427055
0.698416
0.702713
0.625749
0.626452
0.847253
0.843576
0.723074
0.717826
0.730665
0.735237
0.780394
0.780217
0.753656
0.758121
0.767369
0.771798
0.762859
0.713376
0.70908
0.778745
0.778108
0.783996
0.788552
0.732212
0.727605
0.700737
0.695794
0.695402
0.696381
0.695634
0.695913
0.690227
0.68465
0.695558
0.722447
0.722406
0.717186
0.711816
0.745524
0.740234
0.749128
0.749387
0.783743
0.778967
0.768833
0.763913
0.874267
0.87751
0.870341
0.873764
0.844468
0.847896
0.840884
0.797777
0.797822
0.827918
0.831823
0.808912
0.809302
0.801443
0.801894
0.801558
0.80141
0.81182
0.811518
0.819078
0.814842
0.827193
0.82705
0.83138
0.879608
0.876317
0.862178
0.865828
0.842002
0.845502
0.858646
0.855285
0.844968
0.845225
0.839585
0.835872
0.843119
0.843045
0.847029
0.877773
0.881075
0.864599
0.861194
0.867701
0.862246
0.858542
0.88034
0.877008
0.873081
0.887126
0.887148
0.888767
0.885666
0.888433
0.8885
0.891551
0.888379
0.941258
0.9433
0.969276
0.969406
0.981184
0.980981
0.981626
0.976776
0.975746
0.977219
0.978197
0.980035
0.979164
0.980931
0.980897
0.983839
0.983171
0.986
0.985563
0.986316
0.986275
0.983143
0.983867
0.985649
0.985129
0.986213
0.986584
0.906819
0.909567
0.91619
0.91882
0.942861
0.942938
0.936618
0.936641
0.926145
0.923817
0.944029
0.943967
0.950093
0.950087
0.959399
0.957799
0.960909
0.960969
0.963599
0.963532
0.971298
0.97127
0.987199
0.98721
0.987226
0.987269
0.987317
0.548613
0.553618
0.387359
0.390006
0.431396
0.428292
0.432895
0.44389
0.430768
0.429768
0.416246
0.421904
0.425511
0.421616
0.629126
0.636228
0.461663
0.46393
0.403855
0.407511
0.384544
0.384266
0.379392
0.377479
0.387147
0.385658
0.400364
0.401871
0.491065
0.484014
0.458907
0.454958
0.474156
0.477305
0.480228
0.425359
0.430211
0.428815
0.409638
0.405539
0.434175
0.431706
0.439031
0.397794
0.394005
0.393553
0.596985
0.594396
0.591279
0.557296
0.56752
0.758589
0.757514
0.824115
0.824432
0.933395
0.93321
0.965546
0.964081
0.96619
0.964748
0.979943
0.980134
0.974329
0.97536
0.940544
0.942597
0.904293
0.903917
0.928836
0.929133
0.930747
0.931058
0.923536
0.923175
0.939347
0.939653
0.944974
0.944679
0.977669
0.977532
0.981997
0.982444
0.983184
0.98336
0.968896
0.968731
0.971249
0.971138
0.97878
0.979607
0.985284
0.985459
0.521667
0.516635
0.524836
0.529668
0.650041
0.645075
0.670849
0.665481
0.637221
0.634673
0.66646
0.668087
0.649368
0.647841
0.580839
0.586442
0.573257
0.569818
0.619755
0.624014
0.62122
0.617303
0.635563
0.639173
0.629518
0.626452
0.595034
0.592409
0.607085
0.610232
0.607126
0.609928
0.614536
0.617385
0.534293
0.538166
0.406108
0.40541
0.408123
0.415082
0.417815
0.401419
0.402263
0.415419
0.516179
0.528536
0.525277
0.396431
0.39575
0.395234
0.412243
0.415339
0.444399
0.440554
0.415625
0.419225
0.421011
0.434844
0.465097
0.515288
0.515017
0.483465
0.489878
0.490761
0.4315
0.435779
0.454968
0.452438
0.40799
0.410022
0.412709
0.398034
0.398952
0.389913
0.387492
0.392237
0.391348
0.393069
0.394775
0.384605
0.384576
0.382413
0.382018
0.392714
0.392109
0.387941
0.387929
0.410239
0.412165
0.536274
0.533253
0.534841
0.540405
0.55363
0.550811
0.531637
0.53858
0.540352
0.541175
0.510452
0.456813
0.458936
0.450355
0.44915
0.474144
0.471213
0.429886
0.430443
0.599999
0.596064
0.550501
0.551581
0.63102
0.631315
0.836654
0.836818
0.837149
0.837249
0.718201
0.713233
0.753908
0.758415
0.755777
0.751154
0.715534
0.711283
0.78926
0.789292
0.776135
0.780516
0.762747
0.76257
0.767303
0.771728
0.714079
0.709839
0.77404
0.773355
0.783399
0.782805
0.755247
0.75065
0.703573
0.698681
0.70214
0.697225
0.697272
0.691989
0.710701
0.716841
0.688701
0.687633
0.695476
0.695498
0.68497
0.690526
0.727804
0.733127
0.750189
0.750731
0.743653
0.738411
0.778765
0.78353
0.768911
0.76397
0.880263
0.883484
0.880778
0.883965
0.870461
0.873864
0.844558
0.844511
0.829366
0.829212
0.802031
0.801988
0.809204
0.81331
0.803627
0.80402
0.804959
0.804548
0.793055
0.792538
0.789346
0.78901
0.828929
0.82923
0.819991
0.82027
0.819274
0.819492
0.810537
0.810354
0.831517
0.831669
0.823078
0.822924
0.865417
0.862018
0.876159
0.879447
0.861985
0.86568
0.840059
0.839765
0.847982
0.851457
0.855229
0.858617
0.85807
0.854649
0.839788
0.836087
0.839202
0.839112
0.877272
0.880595
0.864866
0.861476
0.870199
0.866703
0.862478
0.858731
0.873628
0.873352
0.928728
0.931117
0.900412
0.903268
0.891619
0.891788
0.894516
0.894381
0.888304
0.888184
0.949717
0.951528
0.972215
0.973372
0.985643
0.985731
0.979031
0.978067
0.977911
0.977973
0.978697
0.97776
0.978406
0.977452
0.978242
0.977259
0.980077
0.979211
0.981676
0.982417
0.986393
0.986554
0.986034
0.985595
0.983898
0.98317
0.985698
0.985173
0.986836
0.987003
0.986881
0.987051
0.901305
0.901348
0.909599
0.906853
0.918881
0.916277
0.943005
0.943068
0.929903
0.929845
0.925997
0.923734
0.946109
0.946081
0.944122
0.942036
0.953836
0.951993
0.950079
0.950071
0.959183
0.959122
0.966626
0.966435
0.972602
0.972614
0.980939
0.980061
0.978612
0.978606
0.985803
0.985817
0.987052
0.558681
0.563637
0.516639
0.523436
0.392452
0.395472
0.451293
0.450458
0.42004
0.424549
0.43571
0.438235
0.412474
0.411122
0.408184
0.408914
0.419557
0.416329
0.396193
0.392085
0.550131
0.553411
0.521556
0.518201
0.45929
0.455456
0.436071
0.441208
0.405116
0.401558
0.386581
0.386761
0.386942
0.38583
0.379115
0.377454
0.388476
0.390988
0.378677
0.379931
0.396831
0.397524
0.473239
0.477982
0.47621
0.459037
0.470854
0.464528
0.444703
0.438398
0.424317
0.420742
0.417841
0.414094
0.411403
0.417146
0.461202
0.458384
0.465828
0.416499
0.416055
0.448355
0.44647
0.604979
0.600907
0.599142
0.595284
0.55664
0.561892
0.590119
0.580441
0.626263
0.625622
0.697455
0.692938
0.648851
0.650751
0.930921
0.928366
0.927369
0.92464
0.954337
0.952489
0.956022
0.957775
0.977918
0.977173
0.979791
0.979679
0.976325
0.97722
0.932973
0.930671
0.908248
0.908456
0.889419
0.889839
0.913413
0.913048
0.947873
0.946134
0.926846
0.924199
0.923893
0.924245
0.920829
0.920462
0.944621
0.9449
0.937363
0.937051
0.942848
0.942546
0.959821
0.959598
0.974689
0.97456
0.98259
0.982152
0.965098
0.965278
0.967623
0.967444
0.970107
0.969963
0.97246
0.980098
0.98086
0.98519
0.985364
0.519106
0.524076
0.698536
0.697396
0.619596
0.61443
0.649354
0.643666
0.694555
0.699303
0.627461
0.624749
0.636682
0.634106
0.662578
0.664626
0.661967
0.660662
0.660536
0.660352
0.648622
0.649164
0.58
0.585674
0.577701
0.574529
0.593097
0.597495
0.608948
0.605367
0.606545
0.610459
0.632112
0.635888
0.638614
0.642035
0.625715
0.62883
0.620285
0.623244
0.598
0.595106
0.603429
0.606368
0.611057
0.608297
0.548659
0.5421
0.529368
0.410197
0.407957
0.527051
0.530848
0.446359
0.449952
0.417112
0.41414
0.393602
0.475552
0.46825
0.457468
0.437899
0.433832
0.424129
0.537666
0.530481
0.516748
0.510313
0.492837
0.501281
0.435013
0.432135
0.405092
0.407559
0.402321
0.396548
0.392221
0.392908
0.395384
0.397504
0.389564
0.391522
0.385422
0.384894
0.381768
0.381809
0.390099
0.390694
0.52372
0.520581
0.536896
0.533475
0.536487
0.534586
0.461674
0.463771
0.592375
0.596498
0.50465
0.499665
0.584403
0.578192
0.67532
0.67014
0.673288
0.673663
0.855247
0.855478
0.841312
0.841402
0.810666
0.814635
0.786209
0.79068
0.708251
0.769536
0.769283
0.780539
0.780596
0.789135
0.793433
0.712868
0.708451
0.719706
0.718909
0.711796
0.712135
0.793545
0.79358
0.78494
0.784967
0.758297
0.753827
0.743591
0.748093
0.710405
0.705865
0.769278
0.768544
0.779388
0.785737
0.790171
0.74982
0.754465
0.705007
0.700141
0.716504
0.711749
0.706928
0.707869
0.698243
0.693153
0.710799
0.71714
0.691256
0.685803
0.706213
0.70087
0.690043
0.684459
0.78024
0.780676
0.760967
0.75588
0.759689
0.75457
0.759205
0.754105
0.743629
0.738413
0.753937
0.758948
0.769216
0.764242
0.773789
0.86676
0.863118
0.880646
0.883844
0.880728
0.883919
0.854677
0.854029
0.856765
0.848254
0.848243
0.833244
0.833111
0.797403
0.797565
0.825112
0.824854
0.810264
0.810306
0.796279
0.795895
0.807468
0.811671
0.797983
0.798455
0.805804
0.806229
0.79702
0.797503
0.792512
0.792389
0.832817
0.833106
0.815794
0.816085
0.815046
0.815273
0.810194
0.831843
0.827894
0.827345
0.823246
0.878577
0.881833
0.876007
0.879289
0.869018
0.872405
0.852051
0.855214
0.843501
0.843813
0.846295
0.842736
0.851673
0.848221
0.851205
0.847723
0.843175
0.843384
0.850079
0.852346
0.849514
0.870503
0.873908
0.881496
0.878215
0.867985
0.868236
0.863118
0.85941
0.876743
0.880081
0.893426
0.893401
0.899954
0.902756
0.892188
0.889126
0.897406
0.899322
0.896944
0.894736
0.885391
0.885286
0.917462
0.920086
0.926304
0.923741
0.949214
0.947337
0.953815
0.953697
0.9716
0.972748
0.98309
0.982559
0.982651
0.977096
0.976051
0.977023
0.975982
0.978867
0.978934
0.97768
0.978611
0.976202
0.975057
0.978291
0.977311
0.980117
0.979257
0.985829
0.985397
0.98623
0.986182
0.983984
0.983278
0.983922
0.983204
0.984538
0.984521
0.986724
0.986888
0.98681
0.986977
0.986859
0.987028
0.886504
0.886492
0.906784
0.909533
0.893029
0.893014
0.940926
0.940857
0.924998
0.924952
0.929832
0.933389
0.935641
0.948134
0.948133
0.942117
0.94418
0.951973
0.953806
0.95747
0.955869
0.963791
0.963684
0.968318
0.968465
0.97264
0.972669
0.980494
0.980517
0.987029
0.987019
0.976564
0.976561
0.985205
0.985222
0.660543
0.65595
0.440298
0.437566
0.442597
0.501087
0.509083
0.39854
0.395307
0.412025
0.416038
0.414072
0.409777
0.428918
0.424851
0.434811
0.434636
0.436294
0.438562
0.431779
0.405789
0.650448
0.656485
0.531517
0.532125
0.507508
0.502986
0.510891
0.509495
0.423816
0.42795
0.446723
0.451666
0.447702
0.444161
0.432091
0.437204
0.401577
0.405155
0.408864
0.389111
0.389326
0.377845
0.377478
0.385036
0.382882
0.38092
0.39262
0.393661
0.396036
0.388848
0.391459
0.384666
0.383234
0.38566
0.383265
0.512171
0.512464
0.479418
0.485764
0.469444
0.471483
0.466646
0.45974
0.463263
0.448879
0.457182
0.432869
0.428692
0.436557
0.419559
0.464632
0.472701
0.532481
0.526523
0.410555
0.426971
0.419765
0.654462
0.65653
0.606822
0.602796
0.591916
0.589742
0.59506
0.560387
0.558292
0.607388
0.610741
0.599642
0.875286
0.878631
0.692371
0.69689
0.657697
0.655938
0.833904
0.828917
0.900263
0.900418
0.921836
0.921872
0.950557
0.952493
0.952261
0.954117
0.962953
0.961389
0.967064
0.968418
0.979839
0.98003
0.975759
0.974741
0.977345
0.976453
0.951348
0.953129
0.937411
0.939549
0.91172
0.91434
0.908085
0.897924
0.898231
0.906132
0.905781
0.903543
0.915217
0.914844
0.93023
0.9305
0.92942
0.926529
0.926874
0.94158
0.94188
0.945268
0.945562
0.953107
0.953359
0.969972
0.969807
0.981704
0.981564
0.978557
0.97773
0.981924
0.981776
0.98345
0.983624
0.956044
0.955824
0.96907
0.967808
0.971402
0.970271
0.984449
0.984616
0.98393
0.983375
0.541954
0.547175
0.532068
0.526817
0.675249
0.675438
0.692513
0.693678
0.611649
0.606577
0.609274
0.604131
0.683739
0.68913
0.69316
0.697978
0.622897
0.620103
0.632061
0.629422
0.655399
0.653239
0.663588
0.661892
0.671631
0.672317
0.664321
0.66403
0.653065
0.653013
0.645873
0.645912
0.510929
0.505978
0.527117
0.532038
0.602052
0.606911
0.559212
0.563327
0.600823
0.596545
0.611787
0.608319
0.613447
0.609649
0.617796
0.62127
0.628603
0.632042
0.637896
0.64137
0.618676
0.621709
0.626262
0.629346
0.586369
0.589172
0.598138
0.601273
0.608356
0.605496
0.533575
0.532732
0.534554
0.537017
0.526879
0.529929
0.53185
0.535411
0.47965
0.482978
0.446812
0.443184
0.402079
0.402493
0.404188
0.396634
0.394918
0.464255
0.471864
0.45341
0.454809
0.440781
0.437003
0.52128
0.520433
0.522458
0.525056
0.496501
0.503452
0.499782
0.404543
0.401233
0.388399
0.387493
0.390692
0.390125
0.393499
0.383404
0.383877
0.53031
0.527419
0.588401
0.592768
0.508573
0.50372
0.585889
0.579752
0.690757
0.685648
0.637385
0.637126
0.832788
0.832958
0.842627
0.846214
0.852126
0.852286
0.841197
0.814447
0.814551
0.810753
0.810827
0.785859
0.790349
0.717038
0.72245
0.70008
0.69502
0.776142
0.776203
0.784802
0.788083
0.792423
0.732579
0.727927
0.723742
0.726148
0.722554
0.716506
0.716132
0.789182
0.793464
0.784565
0.784741
0.784864
0.740214
0.740163
0.739095
0.725714
0.721301
0.752121
0.751377
0.774729
0.770019
0.781258
0.762953
0.767582
0.738394
0.743172
0.708404
0.709816
0.708837
0.713295
0.705569
0.706977
0.707543
0.7114
0.707498
0.728022
0.733466
0.701065
0.705606
0.702613
0.692161
0.686641
0.700905
0.7063
0.769733
0.769447
0.75536
0.760466
0.754301
0.759413
0.743738
0.738472
0.748796
0.758935
0.753899
0.773934
0.774123
0.854655
0.851337
0.869701
0.873128
0.874011
0.877295
0.877568
0.874336
0.870609
0.87398
0.857959
0.861246
0.85195
0.85197
0.844553
0.848182
0.809151
0.808908
0.805962
0.805815
0.801905
0.79769
0.837027
0.837132
0.822286
0.822328
0.797582
0.79741
0.797193
0.796931
0.821884
0.821545
0.802785
0.802344
0.807858
0.808229
0.795479
0.795034
0.800547
0.800112
0.810101
0.810502
0.794351
0.789718
0.787899
0.78779
0.832046
0.832278
0.812837
0.812483
0.816398
0.812144
0.815523
0.811237
0.82769
0.82751
0.868455
0.871794
0.87873
0.88197
0.882667
0.882834
0.872959
0.869527
0.849728
0.849141
0.858531
0.858122
0.847207
0.847541
0.839434
0.83908
0.853594
0.856986
0.847444
0.850918
0.840034
0.836338
0.843054
0.839439
0.843156
0.839273
0.846471
0.846648
0.874185
0.870805
0.878004
0.881295
0.866384
0.869906
0.910595
0.907759
0.904488
0.906816
0.905116
0.894963
0.897885
0.886005
0.885832
0.898024
0.897908
0.898046
0.891515
0.891517