/*--------------------------------*- C++ -*----------------------------------*\
  =========                 |
  \\      /  F ield         | OpenFOAM: The Open Source CFD Toolbox
   \\    /   O peration     | Website:  https://openfoam.org
    \\  /    A nd           | Version:  7
     \\/     M anipulation  |
\*---------------------------------------------------------------------------*/
FoamFile
{
    version     2.0;
    format      ascii;
    class       volScalarField;
    location    "660";
    object      T;
}
// * * * * * * * * * * * * * * * * * * * * * * * * * * * * * * * * * * * * * //

dimensions      [0 0 0 1 0 0 0];

internalField   nonuniform List<scalar> 
238806
(
0.997925
0.998613
0.996429
0.998461
0.997221
0.99809
0.998072
0.998389
0.998169
0.997481
0.997581
0.998884
0.996789
0.996736
0.996463
0.996342
0.99757
0.997244
0.998474
0.998683
0.997066
0.996969
0.996382
0.996547
0.996892
0.997392
0.997196
0.99754
0.997575
0.99694
0.998404
0.998366
0.997095
0.997212
0.99743
0.997523
0.785488
0.784729
0.997214
0.997819
0.997599
0.997205
0.99829
0.9983
0.998541
0.99847
0.99639
0.996502
0.997346
0.997412
0.997894
0.997927
0.99691
0.996855
0.921282
0.921767
0.99763
0.996946
0.997422
0.99756
0.997208
0.998822
0.997425
0.997837
0.997889
0.998461
0.998499
0.99834
0.998421
0.998158
0.998065
0.997046
0.996909
0.997349
0.997257
0.997772
0.997684
0.997424
0.997518
0.975261
0.975338
0.997568
0.997661
0.998183
0.998195
0.997858
0.99785
0.997344
0.99716
0.99747
0.997334
0.998358
0.997359
0.998429
0.998691
0.997726
0.997787
0.997561
0.997544
0.997931
0.998474
0.998293
0.998243
0.998299
0.998285
0.996055
0.995918
0.997211
0.9971
0.997131
0.996988
0.997663
0.997856
0.997882
0.997868
0.996831
0.996951
0.776249
0.776485
0.77569
0.996764
0.996726
0.998205
0.99815
0.998151
0.998095
0.995886
0.995964
0.997113
0.997402
0.99792
0.996791
0.997263
0.997396
0.996815
0.997669
0.998305
0.998354
0.996375
0.996871
0.996299
0.996984
0.997602
0.998087
0.996783
0.998351
0.998318
0.998319
0.998304
0.998146
0.998117
0.998008
0.997967
0.996116
0.995959
0.996955
0.996837
0.996973
0.996837
0.996964
0.996866
0.997688
0.997626
0.997937
0.99791
0.997408
0.997499
0.979245
0.97918
0.786022
0.785265
0.997483
0.997557
0.992835
0.99282
0.992941
0.998159
0.998096
0.9978
0.997773
0.996112
0.995996
0.997309
0.997394
0.9971
0.997256
0.997817
0.998117
0.998268
0.998456
0.998307
0.998326
0.998382
0.998395
0.998013
0.996816
0.99772
0.997549
0.997576
0.997535
0.997199
0.998523
0.998447
0.998419
0.998735
0.998295
0.998194
0.997974
0.997907
0.998109
0.998135
0.99454
0.994602
0.995686
0.995517
0.996351
0.996511
0.997043
0.997042
0.997171
0.997277
0.997752
0.997642
0.997733
0.997982
0.997873
0.997894
0.997425
0.997516
0.987203
0.987637
0.955772
0.957102
0.957936
0.959219
0.88967
0.886651
0.998353
0.998412
0.997211
0.998218
0.996168
0.996006
0.991383
0.991176
0.998216
0.998187
0.997872
0.997899
0.997746
0.997729
0.997229
0.997381
0.996729
0.996943
0.997298
0.997577
0.997919
0.999085
0.998224
0.998719
0.998298
0.998295
0.997514
0.99752
0.998167
0.99816
0.99759
0.997851
0.996967
0.996851
0.998076
0.997249
0.996966
0.999142
0.997728
0.998464
0.998519
0.998354
0.998309
0.998313
0.998332
0.998261
0.997649
0.998228
0.998233
0.998143
0.998125
0.995542
0.995449
0.996103
0.996167
0.995578
0.995411
0.995991
0.995817
0.996691
0.99653
0.996833
0.996657
0.996885
0.996746
0.996813
0.996778
0.997487
0.9974
0.997749
0.997726
0.997871
0.99773
0.996861
0.996881
0.997308
0.997326
0.99727
0.997173
0.980507
0.981097
0.984844
0.985348
0.977521
0.976791
0.974539
0.974463
0.951587
0.951771
0.886535
0.889575
0.775057
0.997434
0.997571
0.996778
0.996873
0.928937
0.926734
0.995582
0.995723
0.992729
0.992702
0.998433
0.998839
0.998215
0.998091
0.997805
0.997844
0.997726
0.998003
0.996585
0.997087
0.996476
0.99703
0.99788
0.997924
0.995122
0.998879
0.998924
0.998126
0.997576
0.998274
0.998289
0.997655
0.997661
0.997805
0.998033
0.99692
0.997974
0.996094
0.997095
0.996519
0.997875
0.998015
0.997762
0.997953
0.998478
0.997765
0.998903
0.997964
0.998317
0.99832
0.998539
0.998626
0.998423
0.998451
0.998422
0.998375
0.998268
0.997962
0.997731
0.997585
0.997845
0.997884
0.998253
0.998245
0.998268
0.998239
0.998163
0.998157
0.9981
0.998078
0.997916
0.997886
0.994771
0.994706
0.996304
0.996423
0.995461
0.995297
0.995898
0.995723
0.996262
0.996086
0.996516
0.996356
0.9968
0.996661
0.996877
0.996916
0.997418
0.997326
0.997804
0.997822
0.99752
0.997289
0.997222
0.997326
0.997203
0.997222
0.997364
0.983247
0.983737
0.987184
0.987617
0.983816
0.983266
0.981993
0.982594
0.957108
0.955769
0.961234
0.962253
0.9545
0.953156
0.83191
0.83224
0.945704
0.947208
0.997966
0.998423
0.997919
0.996474
0.99643
0.996286
0.996442
0.996206
0.996559
0.923585
0.924057
0.993679
0.993513
0.993037
0.992942
0.992778
0.992743
0.995467
0.99541
0.998237
0.998337
0.998099
0.998415
0.997957
0.997964
0.997843
0.997435
0.997144
0.997769
0.997262
0.996055
0.997129
0.99665
0.995849
1.00058
0.998625
0.998294
0.998346
0.998184
0.99824
0.998317
0.998355
0.997356
0.997362
0.997634
0.997568
0.997777
0.997719
0.998311
0.998149
0.99748
0.997332
0.997768
0.997323
0.997285
0.996736
0.996784
0.997276
0.996764
0.997176
0.997314
0.997974
0.998426
0.998161
0.998952
0.999592
0.998484
0.998569
0.998467
0.998403
0.998333
0.998327
0.998362
0.998363
0.997604
0.997754
0.998058
0.997992
0.998211
0.998276
0.998196
0.998202
0.998185
0.998071
0.998067
0.998068
0.998091
0.998107
0.997934
0.997972
0.99424
0.994326
0.995303
0.995607
0.996639
0.996758
0.996038
0.996176
0.995739
0.995893
0.996064
0.996222
0.995795
0.995624
0.996182
0.996003
0.996424
0.996264
0.99693
0.997046
0.996708
0.996569
0.997178
0.997206
0.99705
0.997125
0.997336
0.997242
0.997547
0.997578
0.997501
0.997473
0.997896
0.99791
0.997553
0.997666
0.997399
0.997459
0.997332
0.997228
0.997074
0.996965
0.974077
0.973292
0.981102
0.980513
0.984837
0.985343
0.978546
0.978479
0.976743
0.977477
0.971816
0.970952
0.959265
0.959126
0.961822
0.961884
0.95298
0.954334
0.821284
0.817632
0.783564
0.782783
0.921865
0.922038
0.882883
0.883019
0.997507
0.997731
0.999763
0.998471
0.996241
0.996092
0.997351
0.997234
0.997383
0.997416
0.99661
0.996665
0.931417
0.93183
0.8168
0.816055
0.990155
0.99009
0.991867
0.991677
0.991845
0.991992
0.992721
0.992559
0.992767
0.992818
0.997932
0.997594
0.998022
0.998212
0.998094
0.998036
0.99805
0.998095
0.997986
0.997984
0.997795
0.997778
0.997532
0.997919
0.996048
0.995862
0.997169
0.997147
0.996746
0.996994
0.997041
0.99733
0.997092
0.998131
0.998193
0.999821
0.998416
0.998487
0.998334
0.998284
0.998318
0.99727
0.997276
0.997729
0.997674
0.997587
0.997593
0.998062
0.998117
0.998261
0.998535
0.997041
0.997609
0.996342
0.997786
0.997525
0.997522
0.998374
0.996826
0.999015
0.99801
0.997812
0.99751
0.997288
0.996844
0.998341
0.998177
0.998387
0.99864
0.998562
0.998437
0.998433
0.998306
0.997878
0.998004
0.997323
0.998141
0.997911
0.99784
0.998148
0.998104
0.998231
0.998206
0.998379
0.998619
0.998244
0.998256
0.997618
0.998688
0.997996
0.998012
0.998117
0.998122
0.998051
0.997966
0.995269
0.995358
0.99481
0.99473
0.994706
0.994752
0.995494
0.995581
0.996469
0.99661
0.996532
0.996651
0.996153
0.996292
0.995773
0.99562
0.996159
0.996319
0.99609
0.995913
0.996356
0.996179
0.997014
0.99713
0.99698
0.997027
0.996857
0.996759
0.997575
0.997505
0.997554
0.997485
0.997607
0.997553
0.997766
0.997764
0.998096
0.997527
0.997513
0.997614
0.997798
0.99712
0.997114
0.997331
0.997429
0.997021
0.997131
0.995664
0.995792
0.974059
0.97404
0.979309
0.978666
0.97971
0.979789
0.986317
0.985848
0.983253
0.983805
0.981955
0.982561
0.957104
0.955754
0.967794
0.967728
0.968959
0.969034
0.963078
0.96408
0.963421
0.96443
0.957242
0.958438
0.957087
0.955809
0.903298
0.905875
0.828785
0.832599
0.810543
0.807119
0.784485
0.783717
0.781947
0.781137
0.91965
0.919543
0.776374
0.777398
0.776508
0.997335
0.997452
0.998249
0.996619
0.999753
0.998353
0.998316
0.997574
0.998924
0.996469
0.996383
0.997093
0.997214
0.997184
0.997304
0.997716
0.99755
0.997797
0.997761
0.994178
0.993806
0.902039
0.899417
0.924919
0.925375
0.90629
0.906857
0.852666
0.85308
0.99225
0.992497
0.993995
0.99384
0.992092
0.991896
0.991478
0.991268
0.992299
0.992162
0.992762
0.992875
0.992688
0.992964
0.992877
0.99768
0.997971
0.997857
0.996884
0.998281
0.998749
0.997622
0.99779
0.99794
0.998068
0.998021
0.997995
0.997838
0.997823
0.997906
0.997936
0.99764
0.99746
0.996074
0.996274
0.997215
0.997251
0.997089
0.997689
0.997909
0.997562
0.998274
0.998267
0.997121
0.996951
0.998078
0.99797
0.998327
0.998297
0.997437
0.997444
0.997609
0.997543
0.997487
0.997843
0.998088
0.998074
0.998052
0.997997
0.998212
0.997574
0.996656
0.996658
0.996813
0.996267
0.997351
0.997215
0.997163
0.996936
0.99698
0.997
0.997897
0.996827
0.997157
0.997418
0.998149
0.998119
0.998501
0.998565
0.998816
0.998754
0.998358
0.998367
0.99802
0.997996
0.998132
0.998128
0.998145
0.99823
0.998203
0.998295
0.998286
0.998309
0.998225
0.998021
0.998025
0.998033
0.998066
0.994482
0.994393
0.994403
0.994476
0.994952
0.994884
0.995797
0.995709
0.996243
0.996741
0.99686
0.9963
0.996183
0.995849
0.996006
0.99642
0.996259
0.9966
0.996764
0.997282
0.997311
0.99663
0.996531
0.99702
0.996944
0.997318
0.997246
0.997575
0.997655
0.997522
0.997472
0.997581
0.997602
0.997959
0.997969
0.997966
0.997953
0.997831
0.997737
0.9977
0.997007
0.997003
0.997387
0.997495
0.997064
0.997175
0.973322
0.973307
0.973276
0.973257
0.977969
0.977958
0.979908
0.9799
0.986477
0.986891
0.985845
0.986316
0.983239
0.983794
0.979305
0.978607
0.978193
0.978233
0.970969
0.970958
0.966821
0.966753
0.971685
0.971759
0.95139
0.949974
0.96155
0.961437
0.960267
0.959151
0.964347
0.965339
0.963593
0.964601
0.952174
0.95076
0.957579
0.958805
0.955655
0.956946
0.940337
0.940188
0.828399
0.828044
0.806681
0.810129
0.784976
0.784213
0.796956
0.800558
0.8876
0.884684
0.919472
0.921755
0.88261
0.882746
0.863701
0.86392
0.99853
0.99793
0.997671
0.997423
0.997379
0.998874
0.998345
0.99868
0.997115
0.991723
0.991356
0.998266
0.998262
0.996141
0.995903
0.996344
0.996261
0.99739
0.997279
0.997311
0.997719
0.99729
0.997687
0.995123
0.995381
0.993387
0.99342
0.848346
0.845926
0.934273
0.934674
0.923114
0.922644
0.925832
0.92629
0.835251
0.83571
0.869718
0.870419
0.995757
0.995901
0.986486
0.986541
0.990329
0.990457
0.995285
0.995443
0.993374
0.993538
0.991579
0.991768
0.992392
0.992253
0.992397
0.992586
0.992832
0.992725
0.992666
0.995389
0.998178
0.99806
0.998453
0.998079
0.998011
0.998113
0.997981
0.998015
0.997871
0.997888
0.998015
0.997164
0.997306
0.99763
0.995727
0.995936
0.995911
0.996478
0.996134
0.997313
0.997223
0.996832
0.996822
0.998632
0.997539
0.998461
0.997715
0.998027
0.997995
0.998379
0.998207
0.997942
0.998363
0.998025
0.997522
0.997472
0.997393
0.997419
0.997699
0.997756
0.998095
0.998053
0.999017
0.997639
0.998214
0.997959
0.997077
0.997283
0.9972
0.997022
0.997471
0.996479
0.997216
0.997791
0.99773
0.997577
0.997269
0.997224
0.997099
0.996806
0.996946
0.997567
0.997519
0.99723
0.998413
0.998378
0.998266
0.998347
0.99838
0.99838
0.998124
0.998122
0.998005
0.998402
0.998097
0.998158
0.998218
0.997966
0.998165
0.998185
0.998263
0.998266
0.998055
0.998037
0.994817
0.994723
0.995138
0.995067
0.994639
0.994562
0.994752
0.994805
0.99599
0.995902
0.99596
0.996114
0.99651
0.996371
0.996421
0.99654
0.996434
0.996597
0.996869
0.996897
0.996665
0.996591
0.997153
0.997227
0.997251
0.997157
0.997563
0.99759
0.997432
0.997381
0.997685
0.997675
0.99791
0.997902
0.997845
0.997853
0.997823
0.997772
0.997
0.996981
0.996889
0.996884
0.997232
0.997281
0.974093
0.97411
0.97728
0.977269
0.978626
0.979273
0.983322
0.983856
0.980456
0.980548
0.987126
0.987201
0.986773
0.986774
0.985364
0.984864
0.98434
0.984348
0.981911
0.982519
0.978808
0.979494
0.956935
0.955657
0.971822
0.971831
0.972732
0.971873
0.972764
0.972831
0.970114
0.970189
0.968881
0.956439
0.957743
0.95902
0.960254
0.961701
0.960344
0.959228
0.964264
0.965256
0.965422
0.965506
0.963036
0.963105
0.961961
0.960782
0.953145
0.954468
0.957401
0.958606
0.955501
0.956801
0.941781
0.943411
0.948669
0.948767
0.828791
0.825022
0.836514
0.832663
0.813651
0.81405
0.790559
0.788251
0.784014
0.783241
0.791679
0.788914
0.887702
0.884808
0.925057
0.92513
0.903921
0.903849
0.876097
0.875932
0.879772
0.879613
0.838446
0.838523
0.777605
0.777627
0.997935
0.997788
0.997925
0.997687
0.99804
0.998105
0.997943
0.997723
0.99794
0.996828
0.998981
0.997087
0.99713
0.998689
0.998915
0.996189
0.996199
0.995893
0.996529
0.996599
0.997193
0.996998
0.998533
0.997871
0.998694
0.997685
0.997936
0.997947
0.997471
0.993894
0.994045
0.993772
0.994144
0.903211
0.903733
0.835725
0.834945
0.911202
0.910803
0.928599
0.928987
0.920797
0.920313
0.8382
0.838803
0.867194
0.866482
0.994851
0.995035
0.995379
0.995533
0.98695
0.986903
0.98788
0.988206
0.989208
0.989237
0.990036
0.989997
0.993697
0.99385
0.991583
0.991372
0.991099
0.990901
0.992461
0.992321
0.992132
0.992266
0.992879
0.992982
0.997724
0.997945
0.997911
0.997887
0.998304
0.998534
0.998071
0.998036
0.997964
0.997946
0.997918
0.997933
0.997901
0.997865
0.997676
0.997796
0.996194
0.996401
0.996783
0.996871
0.997464
0.997714
0.997576
0.996984
0.996968
0.997732
0.997999
0.998292
0.998244
0.997627
0.998285
0.997223
0.997251
0.997495
0.997469
0.998064
0.998038
0.998038
0.998138
0.998566
0.998044
0.997293
0.997353
0.996599
0.997671
0.997354
0.998055
0.997528
0.997583
0.996876
0.997614
0.99837
0.997092
0.997101
0.994536
0.994571
0.997683
0.997784
0.997143
0.997329
0.997385
0.997087
0.996564
0.996957
0.99728
0.997078
0.999292
0.997897
0.998915
0.998017
0.998393
0.998383
0.998377
0.998965
0.998027
0.998357
0.998379
0.998397
0.998376
0.99816
0.998163
0.997677
0.99794
0.998014
0.998051
0.998199
0.998161
0.998215
0.998191
0.994992
0.994895
0.9943
0.99415
0.994989
0.994906
0.995392
0.995238
0.995379
0.994873
0.995207
0.995265
0.995584
0.995937
0.99591
0.995977
0.996403
0.996264
0.996976
0.99699
0.996719
0.996798
0.996748
0.996649
0.997338
0.997409
0.997159
0.997064
0.997647
0.997673
0.997694
0.997689
0.997848
0.997838
0.997869
0.997826
0.997114
0.997094
0.988077
0.988073
0.976541
0.976549
0.976075
0.975332
0.979329
0.978687
0.981109
0.980523
0.983876
0.983323
0.97596
0.975881
0.983317
0.982743
0.986184
0.986142
0.984738
0.985303
0.98584
0.986311
0.983202
0.983765
0.984858
0.98536
0.984331
0.981856
0.982467
0.981286
0.982699
0.982114
0.979598
0.978925
0.950536
0.94908
0.953039
0.954418
0.964228
0.96422
0.970179
0.970215
0.974883
0.974956
0.974387
0.975184
0.968561
0.968479
0.97102
0.971093
0.967254
0.967329
0.955307
0.953977
0.960372
0.960531
0.96508
0.96517
0.962321
0.961282
0.964514
0.963505
0.966249
0.966322
0.960691
0.960608
0.954589
0.953267
0.956318
0.956155
0.959574
0.958342
0.951411
0.952811
0.918701
0.91637
0.946872
0.948358
0.945622
0.945534
0.948589
0.895301
0.892526
0.803501
0.807322
0.829632
0.833407
0.805425
0.808875
0.805935
0.80941
0.799249
0.802536
0.787783
0.79011
0.784979
0.785417
0.788211
0.791025
0.782324
0.781522
0.945692
0.947205
0.904656
0.904553
0.892177
0.892064
0.898339
0.895516
0.873077
0.872861
0.879459
0.87931
0.845997
0.846198
0.80268
0.802731
0.775614
0.775109
0.995586
0.9957
0.997769
0.997802
0.997214
0.998005
0.997757
0.99795
0.997757
0.99813
0.997994
0.996524
0.996158
0.996051
0.997777
0.997748
0.998576
0.998454
0.998178
0.998265
0.996209
0.996348
0.99731
0.997306
0.996929
0.997062
0.997437
0.997961
0.998067
0.997945
0.997604
0.997715
0.997475
0.997357
0.997079
0.99673
0.991784
0.991744
0.994961
0.995192
0.987177
0.98762
0.940902
0.940869
0.877161
0.880292
0.836429
0.835651
0.905869
0.908363
0.943516
0.943258
0.926795
0.926395
0.928024
0.928468
0.914038
0.914564
0.898292
0.898874
0.817823
0.817067
0.856716
0.857477
0.808103
0.805529
0.995831
0.995971
0.995676
0.995817
0.990231
0.989931
0.98897
0.988594
0.988994
0.988763
0.989019
0.990241
0.990284
0.994688
0.994507
0.992802
0.992635
0.991692
0.991479
0.991218
0.991016
0.991192
0.991366
0.993165
0.993045
0.992338
0.9922
0.992549
0.992402
0.995341
0.995322
0.997375
0.997991
0.998018
0.997889
0.9981
0.998221
0.998111
0.998202
0.997925
0.997899
0.998028
0.997999
0.997611
0.997808
0.995559
0.995573
0.996547
0.997831
0.99831
0.998256
0.997337
0.997311
0.998114
0.998117
0.997964
0.999009
0.997661
0.99687
0.997061
0.99795
0.998075
0.997565
0.997326
0.997393
0.997331
0.996849
0.996275
0.995854
0.995811
0.997674
0.997787
0.997415
0.997457
0.997126
0.997229
0.996734
0.99841
0.997944
0.999401
0.998003
0.997865
0.998123
0.999134
0.998173
0.997858
0.998395
0.998406
0.998479
0.998278
0.998313
0.998301
0.998354
0.99837
0.998095
0.998144
0.998022
0.998055
0.998092
0.998083
0.995726
0.995638
0.995344
0.995241
0.99479
0.994622
0.994458
0.994883
0.994953
0.994824
0.994653
0.994826
0.994985
0.995357
0.995625
0.995424
0.995807
0.997289
0.99734
0.997075
0.9971
0.996506
0.996408
0.997423
0.997493
0.997611
0.997607
0.997866
0.997878
0.986807
0.98644
0.991419
0.991398
0.962128
0.963217
0.983984
0.984506
0.983766
0.983264
0.977316
0.97734
0.981132
0.980551
0.979282
0.978636
0.979919
0.985523
0.985921
0.977368
0.977451
0.976555
0.975803
0.983528
0.984015
0.986386
0.986801
0.986748
0.98668
0.986722
0.986692
0.987219
0.987653
0.986768
0.984321
0.98431
0.984851
0.985354
0.981794
0.982405
0.981374
0.981333
0.976584
0.97733
0.978889
0.979566
0.953098
0.951735
0.954414
0.953039
0.963277
0.962256
0.964246
0.974279
0.974288
0.967863
0.966894
0.972024
0.971948
0.973495
0.973422
0.973602
0.973666
0.971457
0.971534
0.970039
0.970946
0.968232
0.968308
0.967182
0.950978
0.952386
0.957827
0.956514
0.964177
0.963178
0.959076
0.960184
0.963341
0.963262
0.964943
0.965925
0.964144
0.964212
0.962986
0.952032
0.950616
0.957102
0.958295
0.956004
0.958215
0.959463
0.951074
0.952484
0.954173
0.947257
0.947276
0.946773
0.948267
0.947011
0.946952
0.945486
0.947066
0.906079
0.903509
0.854207
0.853723
0.811003
0.812049
0.809049
0.8292
0.832989
0.828807
0.82501
0.817246
0.820908
0.812936
0.813279
0.798895
0.80222
0.787339
0.789688
0.785877
0.786359
0.801752
0.798124
0.788555
0.791348
0.784475
0.782419
0.935524
0.933682
0.929272
0.927224
0.902313
0.90219
0.90994
0.909892
0.920811
0.922892
0.901083
0.901116
0.892412
0.892481
0.875103
0.878291
0.872659
0.872474
0.867058
0.867288
0.846406
0.846583
0.777494
0.777299
0.77564
0.775451
0.775183
0.994893
0.994731
0.998436
0.998412
0.997529
0.998147
0.997897
0.997833
0.997941
0.998383
0.997962
0.998313
0.997917
0.997527
0.991723
0.99136
0.997257
0.997212
0.998252
0.9982
0.998505
0.998439
0.99845
0.998363
0.998575
0.998523
0.998242
0.998197
0.996635
0.996869
0.997283
0.997369
0.996845
0.996862
0.996806
0.99824
0.997759
0.997187
0.997997
0.998317
0.997838
0.99743
0.997649
0.999847
0.998159
0.998192
0.99364
0.993726
0.99383
0.994882
0.994536
0.981384
0.981521
0.972486
0.972424
0.924202
0.924491
0.875069
0.878262
0.876654
0.879793
0.83711
0.836334
0.854548
0.851441
0.90877
0.906285
0.942683
0.943011
0.92455
0.924139
0.923121
0.922682
0.930161
0.930592
0.914968
0.914457
0.908929
0.909483
0.840773
0.841583
0.820997
0.819174
0.81476
0.814024
0.862131
0.862807
0.855729
0.8563
0.831274
0.828127
0.797406
0.79661
0.995532
0.995686
0.99544
0.995288
0.990019
0.990321
0.988521
0.988894
0.990887
0.991001
0.989172
0.98909
0.990341
0.990408
0.993395
0.993156
0.993836
0.99394
0.99181
0.991594
0.991785
0.991978
0.991151
0.990952
0.991533
0.991692
0.993082
0.993187
0.992544
0.992402
0.992596
0.992469
0.992274
0.992139
0.995103
0.99498
0.997575
0.998047
0.998747
0.997861
0.997824
0.998136
0.998244
0.997946
0.995596
0.995341
0.995412
0.99823
0.99753
0.998641
0.998163
0.998447
0.997699
0.997093
0.997167
0.997798
0.99851
0.997371
0.996948
0.995702
0.995696
0.996528
0.996216
0.995713
0.997263
0.997882
0.997184
0.99726
0.998237
0.997031
0.999824
0.998211
0.998175
0.998137
0.998175
0.998472
0.998465
0.998397
0.998309
0.998382
0.998392
0.998406
0.998646
0.998308
0.998315
0.998371
0.998379
0.998123
0.998058
0.995086
0.995173
0.99513
0.99496
0.994555
0.994646
0.995201
0.995011
0.994981
0.994944
0.995817
0.997242
0.997189
0.99738
0.997408
0.996836
0.996913
0.997751
0.997697
0.992832
0.993003
0.994644
0.994601
0.991107
0.991103
0.965284
0.965272
0.965248
0.965236
0.984602
0.985079
0.981092
0.980502
0.98059
0.981181
0.985337
0.985741
0.975842
0.975827
0.977983
0.977296
0.979932
0.97995
0.979294
0.978649
0.985477
0.985872
0.978081
0.978167
0.976635
0.976716
0.980815
0.981396
0.986191
0.98661
0.986289
0.986706
0.986622
0.987053
0.985399
0.984831
0.987279
0.987357
0.986758
0.986743
0.987651
0.987218
0.98378
0.983222
0.981231
0.981168
0.982051
0.982645
0.977382
0.97664
0.97885
0.979532
0.950621
0.949165
0.950279
0.948823
0.954402
0.953032
0.963161
0.963142
0.967272
0.967278
0.973491
0.973482
0.972084
0.971227
0.973147
0.973085
0.972807
0.972883
0.975031
0.975107
0.975627
0.975693
0.967615
0.967532
0.969731
0.969652
0.969964
0.969887
0.971832
0.971903
0.967113
0.967044
0.969185
0.969261
0.956723
0.957933
0.952467
0.951066
0.957904
0.956578
0.964724
0.964802
0.962477
0.961425
0.960211
0.959097
0.959327
0.96044
0.964865
0.965847
0.965214
0.965284
0.952327
0.950914
0.956981
0.958174
0.955185
0.956486
0.958082
0.95935
0.953854
0.954013
0.91877
0.916433
0.940545
0.938852
0.945366
0.945254
0.943908
0.943953
0.947133
0.947226
0.895655
0.892887
0.847755
0.844136
0.794921
0.794103
0.819587
0.823522
0.824546
0.82416
0.821673
0.825421
0.823473
0.827225
0.82465
0.828476
0.816874
0.820535
0.809748
0.806284
0.786579
0.785822
0.786917
0.78929
0.797572
0.801232
0.78788
0.79071
0.781242
0.780418
0.780602
0.779763
0.939006
0.938988
0.933659
0.935501
0.927133
0.929164
0.902082
0.90198
0.917109
0.917135
0.920909
0.922929
0.898236
0.898224
0.901064
0.903784
0.886308
0.889391
0.892552
0.892627
0.876273
0.876458
0.859578
0.860131
0.842427
0.842297
0.810629
0.814549
0.819077
0.819065
0.783996
0.783975
0.776663
0.994564
0.994402
0.995789
0.995614
0.998317
0.998346
0.997512
0.997465
0.997849
0.997498
0.997606
0.997966
0.998067
0.998289
0.998401
0.998089
0.998049
0.998086
0.997901
0.997255
0.99512
0.995033
0.995832
0.995918
0.997274
0.997385
0.997738
0.997655
0.998223
0.998268
0.998417
0.998486
0.998543
0.998508
0.998379
0.99848
0.998755
0.99934
0.998499
0.998567
0.997882
0.997697
0.997072
0.996865
0.996772
0.997292
0.996971
0.997119
0.997398
0.997609
0.997629
0.997877
0.998174
0.997774
0.998031
0.997929
0.997216
0.996929
0.997408
0.998304
0.997667
0.997691
0.997796
0.993331
0.993487
0.993578
0.993685
0.99492
0.994736
0.993713
0.994084
0.992151
0.992179
0.987497
0.987854
0.990845
0.990779
0.926453
0.928663
0.930663
0.932823
0.897617
0.900442
0.896676
0.89376
0.845401
0.847826
0.837074
0.837774
0.848428
0.845546
0.917555
0.919798
0.938783
0.938544
0.949922
0.949636
0.937071
0.937439
0.902059
0.904379
0.926001
0.928217
0.929732
0.929305
0.932244
0.93266
0.908252
0.907718
0.916931
0.917427
0.911511
0.912052
0.886282
0.886926
0.847981
0.848695
0.818134
0.819934
0.869578
0.868945
0.865373
0.866062
0.858905
0.859548
0.851967
0.823346
0.820211
0.798265
0.79748
0.995614
0.99546
0.986599
0.986661
0.991638
0.991901
0.989888
0.990236
0.986875
0.986477
0.991365
0.991483
0.990863
0.990981
0.989371
0.989265
0.98955
0.989611
0.989714
0.989727
0.990438
0.990417
0.99343
0.993189
0.993678
0.99379
0.992979
0.992788
0.992395
0.992557
0.99246
0.99228
0.991294
0.99109
0.991029
0.990835
0.991718
0.991557
0.991998
0.991851
0.992941
0.993058
0.992726
0.992597
0.992429
0.992561
0.994597
0.99478
0.99525
0.99826
0.997816
0.995365
0.995252
0.997399
0.997332
0.997982
0.998069
0.997853
0.996681
0.996465
0.997136
0.99766
0.997644
0.997817
0.994946
0.995125
0.995548
0.995801
0.996259
0.996028
0.997546
0.99752
0.998827
0.998116
0.997594
0.998309
0.998195
0.998132
0.998085
0.998551
0.998265
0.998373
0.998383
0.998425
0.998383
0.998435
0.998344
0.998324
0.995451
0.995534
0.995068
0.995168
0.995092
0.995247
0.997136
0.997085
0.993141
0.992962
0.996038
0.996172
0.993325
0.993583
0.988376
0.988742
0.988491
0.988485
0.95971
0.959668
0.964132
0.964107
0.971656
0.970804
0.975933
0.975169
0.98554
0.978383
0.978403
0.977252
0.977259
0.975805
0.975051
0.985492
0.985902
0.984926
0.984987
0.985711
0.985692
0.97509
0.975074
0.976572
0.976559
0.980534
0.981118
0.982321
0.981781
0.985724
0.986135
0.978775
0.978863
0.977286
0.976326
0.97558
0.981473
0.980891
0.986093
0.986514
0.984983
0.98543
0.985758
0.985686
0.986556
0.986975
0.985394
0.984805
0.987069
0.987497
0.985828
0.986292
0.987214
0.987649
0.977091
0.977022
0.979861
0.980523
0.980035
0.980693
0.980123
0.980775
0.982075
0.982666
0.980892
0.980254
0.978764
0.979453
0.97815
0.956115
0.957447
0.950387
0.948931
0.950327
0.948871
0.960098
0.960328
0.959424
0.962058
0.962028
0.966283
0.966285
0.974278
0.974275
0.968565
0.96862
0.971866
0.971846
0.974568
0.974623
0.972377
0.971519
0.974163
0.974092
0.972658
0.972585
0.974311
0.974237
0.975215
0.975271
0.966653
0.966569
0.970642
0.970564
0.970872
0.970796
0.971974
0.966973
0.967936
0.968158
0.96911
0.951563
0.950143
0.952546
0.951151
0.955355
0.95404
0.961205
0.960198
0.963755
0.963666
0.962944
0.96397
0.961346
0.962395
0.961518
0.962567
0.963956
0.963873
0.962001
0.961287
0.962145
0.955025
0.953696
0.950355
0.951775
0.955867
0.955746
0.957765
0.959033
0.952646
0.95124
0.94408
0.944059
0.940842
0.939197
0.944999
0.946549
0.942338
0.941233
0.942565
0.943826
0.948441
0.948515
0.930237
0.92822
0.922445
0.924668
0.896799
0.899487
0.888683
0.889002
0.850641
0.847173
0.804948
0.807396
0.80721
0.827199
0.83112
0.827727
0.831613
0.820687
0.820265
0.825878
0.822171
0.832411
0.836502
0.824272
0.828101
0.816518
0.82016
0.789269
0.791551
0.786865
0.787395
0.79642
0.800008
0.797259
0.800882
0.794464
0.79476
0.782719
0.781924
0.781586
0.780769
0.780915
0.780082
0.947143
0.947137
0.935549
0.933708
0.943944
0.943988
0.904758
0.904865
0.92162
0.921678
0.917124
0.91389
0.911463
0.895321
0.895272
0.903789
0.901097
0.889482
0.886421
0.879027
0.88203
0.866471
0.866789
0.855055
0.854575
0.842129
0.841955
0.811593
0.811417
0.778222
0.778409
0.827284
0.827337
0.787331
0.787298
0.990112
0.990392
0.997334
0.997754
0.997904
0.996016
0.996208
0.998255
0.998232
0.99796
0.998096
0.997857
0.998412
0.99784
0.997925
0.99714
0.997705
0.997345
0.997738
0.997759
0.997731
0.991061
0.990722
0.995492
0.995463
0.996204
0.996311
0.9961
0.996134
0.998005
0.997842
0.997573
0.99749
0.997555
0.997607
0.997812
0.997725
0.998275
0.998227
0.998171
0.998408
0.998436
0.998503
0.998161
0.998484
0.998463
0.99838
0.998489
0.997819
0.999138
0.998442
0.998543
0.998616
0.998548
0.998096
0.998426
0.996104
0.996031
0.996814
0.996685
0.996937
0.997095
0.997201
0.997221
0.997162
0.997424
0.997548
0.997695
0.998033
0.997852
0.998765
0.997146
0.99651
0.995506
0.995628
0.998072
0.997895
0.997976
0.990938
0.990844
0.993266
0.993426
0.993683
0.994042
0.993619
0.994823
0.994845
0.993026
0.992896
0.99333
0.953551
0.95218
0.9879
0.987546
0.990381
0.99044
0.970404
0.971489
0.946573
0.946363
0.934928
0.93491
0.906161
0.903422
0.900973
0.898157
0.883864
0.886919
0.875434
0.872284
0.837768
0.836993
0.849317
0.852457
0.844835
0.847727
0.89612
0.893349
0.912913
0.910512
0.934631
0.932817
0.938992
0.945244
0.944984
0.941053
0.941372
0.943336
0.936249
0.936634
0.922557
0.922161
0.923734
0.927581
0.92714
0.912451
0.911924
0.908371
0.907812
0.896007
0.895406
0.863857
0.864563
0.824323
0.825292
0.834528
0.837493
0.82003
0.821051
0.812726
0.811989
0.887534
0.888107
0.861428
0.864668
0.855045
0.85821
0.804716
0.803982
0.804702
0.807306
0.994888
0.994708
0.995207
0.995376
0.988734
0.988727
0.987066
0.987005
0.992051
0.992297
0.992154
0.9924
0.987514
0.98709
0.986957
0.986557
0.991604
0.991723
0.99112
0.991238
0.989864
0.989969
0.989393
0.989476
0.988919
0.988889
0.989464
0.989484
0.990186
0.990193
0.99062
0.990621
0.995838
0.995982
0.995341
0.995185
0.992537
0.99231
0.994291
0.994146
0.992659
0.992847
0.992286
0.992445
0.992163
0.99234
0.992023
0.991853
0.991523
0.991341
0.991056
0.990861
0.992057
0.991907
0.991698
0.991538
0.993392
0.993285
0.992914
0.992781
0.992525
0.992653
0.994971
0.995154
0.99496
0.995041
0.995221
0.995313
0.99522
0.995115
0.996579
0.996526
0.9974
0.997467
0.997914
0.997857
0.998753
0.998399
0.998596
0.996962
0.996754
0.997545
0.997137
0.997509
0.997585
0.995312
0.995521
0.995285
0.995407
0.996115
0.995876
0.996079
0.996747
0.998268
0.998343
0.998381
0.998456
0.998378
0.998357
0.998505
0.998397
0.99526
0.995339
0.99329
0.993101
0.995923
0.996055
0.99326
0.993518
0.987209
0.987609
0.990763
0.990764
0.966305
0.966293
0.963393
0.962346
0.96085
0.960799
0.964161
0.970824
0.970814
0.971643
0.971629
0.975961
0.975197
0.984578
0.984045
0.986228
0.986656
0.977942
0.977949
0.976537
0.975842
0.975088
0.983356
0.983854
0.984525
0.984244
0.98463
0.985274
0.985297
0.97586
0.97511
0.976636
0.97661
0.976589
0.982779
0.98278
0.982841
0.984288
0.984735
0.981014
0.981095
0.977997
0.978688
0.977051
0.979745
0.979102
0.982764
0.982216
0.985762
0.985662
0.985648
0.985243
0.985965
0.985864
0.985732
0.985416
0.985744
0.983723
0.98315
0.986258
0.985876
0.986102
0.986995
0.987431
0.986303
0.985834
0.978664
0.978716
0.980587
0.979925
0.980737
0.980081
0.982024
0.982622
0.981466
0.980225
0.980867
0.978105
0.978056
0.960267
0.961331
0.955034
0.953682
0.953244
0.951871
0.951686
0.953046
0.954376
0.953018
0.959124
0.957988
0.96091
0.96087
0.963193
0.962111
0.97186
0.971877
0.972657
0.972661
0.973477
0.974275
0.965554
0.965523
0.969219
0.969197
0.974364
0.974394
0.97443
0.974471
0.969254
0.969332
0.973279
0.973349
0.972312
0.97225
0.974683
0.974746
0.973646
0.973721
0.971799
0.971726
0.974762
0.975558
0.975989
0.976041
0.966898
0.966819
0.971223
0.971301
0.970485
0.971379
0.97072
0.97161
0.968011
0.968084
0.95564
0.95436
0.951473
0.950056
0.949635
0.94954
0.953763
0.955112
0.961918
0.962096
0.959106
0.959234
0.962673
0.962573
0.964891
0.964985
0.960841
0.959758
0.962666
0.961624
0.964778
0.965763
0.964017
0.965008
0.964091
0.965153
0.963044
0.963019
0.953543
0.954869
0.951898
0.95048
0.956649
0.955344
0.933376
0.935294
0.937764
0.936275
0.937348
0.943561
0.941957
0.948065
0.948168
0.942068
0.942178
0.942015
0.945473