/*--------------------------------*- C++ -*----------------------------------*\
  =========                 |
  \\      /  F ield         | OpenFOAM: The Open Source CFD Toolbox
   \\    /   O peration     | Website:  https://openfoam.org
    \\  /    A nd           | Version:  7
     \\/     M anipulation  |
\*---------------------------------------------------------------------------*/
FoamFile
{
    version     2.0;
    format      ascii;
    class       volScalarField;
    location    "60";
    object      T;
}
// * * * * * * * * * * * * * * * * * * * * * * * * * * * * * * * * * * * * * //

dimensions      [0 0 0 1 0 0 0];

internalField   nonuniform List<scalar> 
238806
(
2.56965e-70
2.64349e-70
8.42947e-75
-4.99263e-76
9.00664e-76
-3.05204e-72
-1.5441e-72
3.97746e-70
4.29271e-70
4.48145e-74
1.0743e-74
4.95076e-75
1.51475e-72
1.94626e-72
-5.72018e-79
4.08252e-78
2.97974e-74
2.30552e-74
-5.33274e-70
-4.1432e-70
-3.84486e-72
-2.93722e-72
-1.8271e-76
-9.81644e-77
-8.63247e-77
1.4442e-74
1.38275e-74
4.48902e-75
3.21897e-74
-3.41286e-75
-2.84827e-70
-2.78618e-70
-3.23424e-73
-1.1462e-72
-2.58189e-72
-3.38153e-72
-1.81416e-125
-1.46284e-125
2.607e-74
-1.00816e-73
-4.58209e-74
-3.85233e-76
-5.77634e-72
-6.16633e-72
-3.99246e-70
-4.79176e-70
1.4255e-74
4.47328e-74
-2.81483e-72
-5.86517e-72
-3.4235e-71
-2.9903e-71
2.26958e-72
2.86859e-72
1.8303e-99
3.66637e-100
4.41766e-74
4.7238e-74
4.39831e-74
5.90162e-74
5.81582e-74
4.90787e-74
2.46977e-73
3.342e-73
4.60501e-73
-2.76861e-70
-3.73596e-70
4.57867e-70
2.58763e-70
2.26659e-70
2.03894e-70
-1.36469e-72
-5.35719e-73
-5.62218e-72
-2.921e-72
-2.20059e-71
-2.13937e-71
-3.85827e-72
-5.1076e-72
1.25434e-90
-2.05212e-92
-1.0372e-68
-3.04852e-68
-6.62359e-72
-1.11991e-71
-3.21314e-72
-2.77543e-72
4.8594e-76
1.63344e-76
2.25725e-75
1.6158e-75
5.63927e-74
1.40431e-74
-1.20166e-71
-2.46256e-72
-2.7921e-73
-3.36563e-73
-8.07149e-73
5.9303e-73
-3.05452e-75
-4.30597e-70
4.74977e-70
5.24875e-70
-1.43866e-70
-1.03614e-70
-2.32593e-73
-1.42275e-73
-4.51989e-72
-2.63835e-72
-1.29511e-72
-4.48512e-73
-2.26379e-71
-2.83361e-71
-2.33082e-71
-2.66805e-71
9.23896e-73
1.43039e-72
-3.1883e-128
-1.3481e-128
-1.14868e-129
2.0848e-73
2.21442e-74
-8.19292e-72
-5.01081e-72
-3.61309e-72
-1.86869e-72
-2.69101e-77
5.99596e-80
1.4091e-75
-7.65491e-77
-4.63592e-74
1.37997e-74
4.40069e-75
-1.17613e-76
4.68903e-74
9.40132e-74
-1.8935e-71
-2.08634e-71
1.86198e-78
2.73765e-77
-1.02042e-77
4.74731e-77
-5.27063e-72
-3.50203e-71
5.62487e-72
6.57922e-70
6.59002e-70
4.5761e-70
3.95269e-70
2.80185e-70
2.7996e-70
1.23277e-70
1.39171e-70
-1.60819e-73
-7.3646e-74
-2.61811e-72
-1.6815e-72
-1.35065e-72
-5.84943e-73
-2.90437e-72
-2.24906e-72
-1.7041e-71
-1.68037e-71
5.26026e-71
7.7644e-71
3.02003e-72
4.46905e-72
7.33635e-89
-1.44166e-88
4.56204e-124
2.20778e-124
-1.17185e-68
-2.85738e-68
-1.00343e-84
-6.50349e-85
-4.12086e-85
-9.53642e-72
-5.72434e-72
-1.41474e-72
-1.74357e-72
-3.89841e-79
5.03562e-80
-8.22271e-78
6.19333e-75
9.04594e-75
1.46807e-74
2.56984e-73
5.33939e-74
-1.31003e-71
-1.45837e-71
-1.78697e-71
-1.93151e-71
9.86362e-73
-5.96582e-74
8.99923e-73
1.00263e-72
3.77756e-73
-9.08893e-75
-2.73089e-76
1.38341e-73
-1.70138e-74
-2.55253e-70
-4.54761e-70
4.82305e-70
2.23938e-70
4.7739e-70
2.51379e-70
-5.26027e-71
-4.55579e-71
2.40155e-70
2.31437e-70
-1.26266e-77
-1.28163e-77
-2.5629e-74
-8.19741e-75
-7.6956e-74
-2.38624e-73
7.8106e-74
8.07055e-75
-2.84779e-72
-5.12853e-72
-2.35099e-71
-1.90184e-71
-3.25149e-71
-3.54419e-71
6.1392e-71
4.1571e-71
-3.94258e-73
-3.54061e-73
-2.41736e-82
-6.2999e-82
-5.04976e-99
-8.37645e-99
6.22565e-95
9.17721e-95
-3.368e-110
-5.21912e-111
-5.89295e-67
-6.92956e-67
6.82781e-69
7.85485e-69
1.77605e-74
-1.74042e-75
7.73062e-83
4.16102e-83
-6.99495e-72
-4.48836e-72
-2.72449e-72
-2.20981e-72
-2.27507e-72
-1.82868e-72
-3.88751e-73
-3.64666e-73
5.19766e-75
5.40084e-75
2.8427e-74
3.79596e-74
4.59406e-73
5.45854e-73
-2.24534e-72
-2.35897e-72
-1.47837e-71
-1.63242e-71
-1.41811e-73
-1.53053e-73
2.57822e-72
3.01423e-72
1.09138e-73
1.732e-73
1.09832e-73
4.36064e-74
-2.96789e-72
7.7203e-75
5.61819e-73
4.15337e-74
2.18954e-73
-3.97898e-70
-2.19067e-70
8.63794e-70
7.7542e-70
5.92062e-70
5.6244e-70
-1.38894e-70
-1.59947e-70
4.52362e-72
-5.07593e-71
6.26607e-71
1.36658e-70
5.28008e-76
-6.93435e-76
7.48237e-75
5.25527e-75
-2.21046e-74
-7.78001e-75
-2.66255e-74
-3.66739e-75
-1.95422e-73
-3.38057e-74
-7.59588e-74
3.73367e-74
-1.26893e-72
-5.93365e-73
-1.15817e-72
-1.13493e-72
-1.18939e-71
-8.19031e-72
-1.40887e-71
-1.60531e-71
-2.80121e-71
-2.66695e-71
2.78321e-73
-2.63001e-73
2.01185e-72
-3.89017e-73
1.18939e-71
8.49158e-72
2.06442e-94
6.1895e-94
-5.20986e-85
-2.81776e-84
-1.34202e-89
-1.43913e-89
-3.0583e-90
1.26718e-90
3.60449e-97
4.31183e-97
-6.21152e-111
-3.52206e-110
1.56233e-129
-1.17924e-68
-2.52503e-68
-2.67312e-73
-4.76598e-72
-1.14949e-101
2.52677e-102
-7.94564e-77
-1.16823e-77
4.91872e-84
2.48368e-84
-2.3247e-73
1.31423e-73
-4.16029e-72
-2.26364e-72
-2.18482e-72
-1.77295e-72
-1.64526e-72
-1.25997e-72
1.21708e-77
-1.3144e-76
-3.19654e-77
-6.48228e-77
3.08667e-74
1.87306e-74
7.20251e-74
1.96361e-74
-8.92857e-72
-7.61834e-72
-1.14292e-71
-5.47986e-72
-5.00258e-72
-2.19493e-73
-2.31502e-73
6.27616e-73
1.36649e-72
-8.06822e-75
1.00816e-72
-9.50589e-76
-2.26427e-75
7.10311e-78
-8.50782e-72
-1.05684e-71
1.99254e-73
6.00269e-73
-5.48591e-74
-3.48172e-74
4.54784e-73
3.32286e-74
-6.44132e-71
-1.67203e-71
9.91219e-72
-3.93177e-71
-2.41301e-70
-3.12314e-70
4.34356e-70
1.27904e-70
4.64683e-70
1.70898e-70
-1.89639e-71
-2.19686e-71
-2.91789e-71
-3.15168e-71
-8.97836e-71
-1.22765e-70
1.77148e-70
3.2564e-70
-3.71543e-71
-1.9358e-72
1.8944e-70
2.03025e-70
1.31034e-70
1.09123e-70
-2.89702e-77
-1.72203e-77
-4.80499e-73
-6.87345e-73
-1.81895e-74
-6.86377e-75
-2.87209e-74
-6.38128e-75
-6.86242e-76
1.07329e-74
4.09895e-74
1.97808e-74
-1.13991e-72
-5.67432e-73
-1.59953e-72
-1.60088e-72
-9.8508e-72
-6.9632e-72
-2.07465e-71
-1.81454e-71
1.98241e-71
2.7916e-71
-2.13772e-72
-2.87215e-72
1.30292e-72
-3.6994e-73
1.64186e-71
1.37309e-92
-5.23147e-91
-2.20501e-82
-5.9263e-82
-1.07246e-85
-2.6858e-88
1.60588e-86
3.85591e-86
-5.57907e-99
-4.35976e-99
1.35104e-95
-1.98211e-95
-2.10522e-96
4.62546e-97
-6.62843e-121
-1.10058e-120
-2.45078e-100
-6.11037e-100
1.64056e-71
1.65219e-71
1.16547e-71
6.81892e-71
1.95354e-71
-1.04713e-74
9.17745e-74
-3.82951e-73
3.15914e-73
3.65063e-99
4.75132e-100
-9.54429e-78
-6.2428e-78
8.42527e-83
5.47183e-83
-1.55223e-85
-2.78845e-87
1.33616e-79
-1.45344e-81
1.72965e-73
-4.34298e-74
-6.89689e-72
-6.50768e-72
-1.7419e-72
-9.31675e-73
-2.78079e-72
-6.93143e-73
-8.40167e-73
-5.89674e-73
5.1524e-76
1.63698e-76
-2.49551e-76
-9.34662e-78
3.37943e-73
2.12756e-73
3.0433e-73
-1.10159e-71
-2.64665e-72
-1.98352e-71
-1.69841e-71
-2.70656e-71
-2.94682e-71
-8.85905e-74
-9.78293e-74
-2.3635e-73
-1.8763e-73
-3.29896e-73
-2.70423e-73
2.6078e-72
2.39369e-72
2.03999e-73
3.78925e-73
-2.98256e-77
3.48595e-73
3.21827e-73
1.123e-74
3.9287e-76
-8.84947e-75
-8.19654e-75
-3.15005e-75
8.95234e-74
7.87653e-73
-2.60044e-71
-2.08803e-71
-4.52525e-71
9.07254e-73
-3.52049e-70
-1.93558e-70
-3.46107e-70
-3.86239e-70
1.08238e-69
8.6046e-70
7.20205e-70
7.58477e-70
-3.1667e-71
-2.65877e-71
-7.22744e-71
-6.02496e-71
-1.0151e-70
-1.21698e-70
6.19985e-73
-4.3159e-71
3.93696e-70
3.58016e-70
-3.04818e-72
-2.54696e-71
1.0819e-70
4.84271e-71
1.12748e-70
9.79674e-71
1.56925e-79
-2.80396e-78
7.86925e-78
-4.32798e-77
-1.08598e-72
-1.62172e-72
-1.88409e-73
-3.12686e-73
-5.12842e-74
-1.0366e-73
-8.24821e-74
-1.90207e-73
-2.81236e-74
-7.83909e-75
-1.25918e-74
5.22754e-75
2.8514e-74
1.96971e-74
-2.01414e-72
-3.21378e-72
-9.84881e-73
-5.16156e-73
-2.86047e-72
-2.56618e-72
-3.50685e-72
-3.95409e-72
-8.00613e-72
-5.7928e-72
-1.04739e-71
-1.6343e-71
-6.21995e-72
-7.03116e-72
1.8288e-71
-1.43706e-72
4.82284e-71
3.80467e-71
2.96886e-71
2.23219e-71
-1.94454e-72
-1.46793e-72
5.98948e-72
4.17294e-72
1.15568e-99
-9.06577e-100
1.40663e-94
7.93654e-95
-1.61992e-85
-1.80695e-84
-5.24152e-90
-3.76777e-88
-5.31457e-90
1.18895e-89
1.90191e-97
4.09042e-97
1.48543e-96
1.81791e-98
6.9922e-94
-9.40926e-94
-3.41994e-97
-1.54302e-96
-7.07782e-119
3.89453e-120
-6.70703e-127
-3.15899e-128
1.35429e-104
1.2284e-104
1.36374e-111
-1.31505e-112
1.60816e-72
9.66787e-74
9.61127e-71
8.21102e-72
1.67958e-71
1.8196e-71
-3.36162e-69
-1.46717e-70
1.06098e-69
1.53075e-69
-4.1099e-72
-1.01711e-71
-2.90369e-98
-3.24155e-98
7.39029e-117
1.75501e-117
2.50437e-85
-8.59295e-86
8.69108e-82
4.8865e-82
-1.52546e-87
-1.51234e-87
-6.63941e-86
-2.13925e-86
-4.79068e-87
1.05225e-86
-4.02003e-73
7.30194e-74
-1.86971e-72
-2.00204e-72
-1.08952e-71
-1.14849e-71
-4.85696e-72
-5.69739e-72
-2.10681e-72
-1.09728e-72
-1.89219e-72
-2.09311e-72
-9.67e-73
-8.76968e-73
1.7175e-78
-2.16888e-81
-4.51563e-74
-6.49165e-74
8.49693e-75
7.77633e-75
3.31155e-75
4.64282e-74
-3.58209e-75
-7.70059e-72
-2.22317e-72
3.57135e-73
2.06053e-73
-1.72819e-71
-1.51191e-71
-2.29314e-71
-2.52288e-71
-6.89396e-74
-7.7032e-74
-3.51217e-73
-2.8723e-73
-1.77205e-73
-1.89288e-73
1.75598e-72
2.16177e-72
2.82392e-72
3.08701e-72
-4.9656e-75
-2.05532e-75
-3.56345e-75
-1.89234e-75
6.53441e-74
-5.64167e-73
1.26411e-72
5.07131e-73
2.55931e-72
-1.31145e-71
-1.48996e-71
5.91115e-73
2.88373e-73
-4.57124e-76
1.86287e-75
-6.64894e-71
-6.98339e-71
-3.30753e-71
7.92684e-72
-3.43573e-70
-2.60696e-70
3.82665e-70
7.66408e-71
-4.02901e-71
-3.79234e-71
-3.32994e-71
-3.85488e-71
-2.583e-71
-6.85919e-71
-7.04901e-71
-1.03588e-70
-8.6616e-71
-1.45053e-70
-1.72146e-70
2.65199e-70
1.37206e-70
2.45123e-70
2.41707e-70
6.69579e-71
2.91021e-71
-2.74167e-72
-3.09672e-71
1.79161e-70
1.54495e-70
8.72484e-76
1.46444e-75
7.11129e-77
8.89394e-77
-4.89072e-78
8.40288e-80
5.86449e-76
1.60259e-76
-4.49903e-73
-8.24501e-73
-8.43353e-73
-1.23909e-72
-2.43833e-73
-4.12214e-73
-7.98082e-74
-4.05335e-74
-8.7222e-74
-2.15984e-73
-2.13903e-74
2.57219e-76
1.34159e-74
1.60113e-74
-2.34311e-72
-3.85655e-72
-2.22492e-72
-2.21114e-72
-2.1627e-72
-1.69487e-72
-1.52959e-71
-1.28124e-71
-1.40496e-71
-9.37896e-72
-1.30904e-71
-1.30342e-71
-7.59259e-72
-1.15032e-71
3.72934e-71
3.8745e-71
4.72528e-71
1.42678e-71
2.03155e-71
-1.10892e-72
-1.5762e-72
9.9961e-72
1.41057e-71
3.35207e-72
4.88122e-72
-7.61963e-74
-1.05101e-73
1.93917e-101
1.94102e-100
-7.44523e-96
7.62322e-98
-1.26418e-88
2.90112e-88
-3.56681e-83
-1.34705e-83
1.82027e-86
-4.10385e-86
1.72629e-86
4.88904e-86
-2.88223e-99
-1.93751e-99
1.66429e-95
-2.2061e-96
4.74072e-92
3.05897e-92
5.19484e-95
5.91801e-95
4.22287e-94
6.84059e-94
-4.95596e-94
-8.34843e-94
-1.97994e-95
-8.96447e-96
5.27492e-110
9.10686e-110
-2.21151e-121
2.04318e-121
-2.98303e-120
-1.4856e-120
1.89512e-127
5.73194e-128
-4.91968e-125
-9.58053e-126
3.45129e-105
2.80052e-105
-1.28534e-128
-2.12039e-128
6.68234e-129
5.17409e-72
4.44136e-72
-3.4177e-70
-5.31978e-70
-1.07231e-70
-1.80219e-67
-1.49649e-67
3.89718e-68
3.85491e-68
4.08229e-71
4.65939e-71
-4.82556e-69
-8.66419e-69
-9.72331e-70
-4.36685e-69
8.25935e-70
8.59834e-71
3.01027e-70
8.01263e-70
3.25333e-73
-2.11092e-73
-2.46421e-111
1.70797e-112
1.13225e-99
-5.07055e-100
-2.43932e-102
1.61199e-102
-4.11243e-117
2.97539e-117
-1.20203e-78
-2.17377e-78
-2.09997e-77
-1.43022e-77
-4.12402e-82
-3.40448e-82
2.68814e-82
1.44122e-82
7.66741e-85
4.96683e-85
-3.50318e-85
-1.40905e-85
-1.50361e-85
-8.13647e-85
-9.23012e-86
-2.88323e-73
-1.91101e-73
-1.09841e-73
1.4752e-73
-4.57268e-72
-4.42194e-72
-2.87813e-72
-7.47337e-72
-7.93442e-72
-6.50813e-72
-4.76497e-72
-4.91052e-72
-5.70739e-73
-9.5401e-73
-2.26794e-72
-3.63773e-72
-4.34072e-73
-4.4431e-73
-2.88903e-78
-8.64347e-77
-1.68755e-73
-1.79085e-73
4.46387e-75
1.35115e-74
5.17722e-74
1.55314e-75
-2.48404e-72
-8.89364e-72
3.08335e-73
1.10842e-73
-3.19682e-72
-2.71323e-72
-2.45256e-71
-2.21307e-71
-1.12313e-73
-1.23103e-73
-2.32847e-73
-1.8695e-73
7.34173e-73
1.20905e-72
2.16344e-72
1.91598e-72
3.46944e-72
3.92789e-72
-8.76237e-75
-9.68242e-75
-1.01165e-74
-1.31759e-75
-3.62636e-77
1.33312e-76
-5.76126e-73
-9.20445e-73
1.66117e-73
9.17847e-74
-8.54189e-76
-3.91301e-75
-4.79552e-73
5.93165e-73
1.44865e-73
6.62272e-73
1.18421e-73
-1.54154e-73
-2.81873e-70
-1.64805e-70
-3.23339e-71
6.51876e-72
8.21807e-70
9.71557e-70
-3.00058e-71
-3.77675e-71
-4.93183e-71
-8.45517e-71
-9.71581e-71
-7.70068e-71
-6.54429e-71
-6.34479e-71
2.32023e-71
3.19815e-70
3.34311e-70
-2.50934e-72
-2.00154e-71
1.69207e-70
1.53505e-70
1.62976e-77
2.01462e-77
-6.47186e-78
-1.01171e-77
-1.50971e-77
-3.01398e-77
2.28309e-75
2.84706e-75
1.85148e-75
-1.36613e-72
-2.0799e-72
-4.9827e-73
-3.52379e-73
-6.26545e-74
-1.31012e-73
-2.33896e-73
-8.60951e-74
-7.76525e-76
-1.4446e-73
-3.8777e-72
-3.45991e-72
-1.15069e-72
-9.18426e-73
-2.8991e-72
-2.58431e-72
-7.08346e-72
-6.17661e-72
-1.57503e-71
-1.91249e-71
-9.95888e-72
-9.98298e-72
6.46721e-72
-2.94657e-73
-2.37819e-71
-1.60371e-71
-2.01104e-72
2.29867e-71
5.82719e-71
5.94795e-71
2.71523e-71
-8.3637e-73
-1.16512e-72
6.9283e-72
9.97552e-72
2.17257e-72
3.24217e-72
-5.52248e-98
5.88434e-99
-3.28451e-101
-9.93915e-102
2.13773e-96
-4.78549e-96
3.90681e-95
5.1096e-95
-3.63833e-84
-1.29529e-83
-1.31113e-83
-3.63197e-83
4.86019e-86
2.21652e-86
7.03066e-89
-1.67539e-89
3.69851e-89
-2.95977e-90
5.54043e-99
2.35089e-98
1.64323e-95
-1.73942e-96
2.00999e-91
-2.31589e-91
-4.01494e-97
-6.23013e-98
-3.68187e-98
-4.43135e-99
3.00242e-95
1.33446e-95
4.02227e-95
-5.93938e-94
3.79463e-93
7.07355e-93
-5.01707e-97
-6.85408e-97
-9.43416e-96
-7.16625e-95
-4.56389e-96
-6.01464e-96
-6.10136e-100
1.61433e-100
1.5097e-121
3.29833e-120
8.15068e-122
5.46058e-121
1.03952e-126
-2.92399e-127
-1.83728e-121
3.43421e-121
3.02765e-113
-6.14152e-113
2.22292e-105
8.41153e-105
-8.26295e-113
-3.61501e-111
5.56639e-113
2.47401e-114
-1.22706e-69
-1.2897e-69
-1.55895e-69
5.05689e-72
1.44358e-72
2.99099e-71
1.26891e-71
6.18286e-73
1.24154e-72
4.2139e-76
1.71401e-76
-4.19548e-67
-3.8456e-67
2.84939e-72
5.28953e-72
4.4303e-71
3.48946e-71
-1.81714e-69
7.5771e-70
5.40879e-72
-1.56744e-71
2.04313e-71
-2.41495e-71
1.02298e-70
2.0565e-70
-2.18232e-73
-1.9358e-73
-2.68694e-114
-6.65626e-114
-6.33846e-97
4.35464e-97
-5.92378e-100
5.55546e-100
5.51146e-99
9.87561e-100
2.74204e-113
-9.87182e-113
-1.37517e-114
8.04329e-114
-9.77208e-76
-1.32547e-75
5.97325e-86
1.43618e-85
-9.34991e-82
-2.36394e-81
-2.27734e-75
-3.43911e-75
-2.37065e-78
-3.5859e-78
1.39965e-82
2.48731e-82
-1.7654e-83
-1.21994e-83
-5.0152e-88
-4.65721e-87
3.22184e-83
1.89569e-83
-1.06093e-85
6.00253e-79
-1.8479e-72
-1.90179e-72
-3.07808e-72
-3.3916e-72
-5.84059e-72
-5.56602e-72
-3.33974e-72
-4.04385e-72
-1.17589e-72
-6.83571e-73
-4.2714e-73
-3.83043e-73
-1.39716e-72
-1.96971e-72
-4.31e-77
-6.95549e-77
-3.31363e-77
1.75569e-77
4.78993e-76
-1.14366e-73
-1.45714e-73
7.18054e-75
3.10035e-75
-1.07647e-74
1.02151e-74
1.29429e-73
3.2476e-74
2.0667e-73
2.71386e-74
1.07349e-73
-4.50247e-72
-4.02833e-72
-1.56085e-71
-1.30761e-71
1.74277e-73
1.15724e-73
-1.16916e-73
-1.16031e-73
-2.94484e-73
-3.64915e-73
1.3626e-72
5.25244e-73
1.14353e-73
3.38466e-73
2.62561e-73
1.07114e-74
-8.33938e-75
-7.47616e-75
-1.04122e-75
-1.66726e-75
-2.8348e-75
-1.94082e-75
-3.09176e-72
-7.05255e-72
-4.65457e-72
-2.11974e-72
-2.51565e-72
4.00024e-74
-1.62418e-73
1.88356e-74
2.01977e-77
1.29052e-72
3.99474e-72
-2.18864e-73
-2.51943e-70
-2.02427e-70
-1.75161e-70
-3.13172e-70
-1.45936e-70
-6.61318e-71
-5.88972e-71
-4.58073e-71
-4.34846e-71
-4.4541e-71
-3.17498e-71
-2.97231e-71
-1.09515e-70
-1.19968e-70
1.71541e-70
8.15173e-71
1.19343e-71
-5.71575e-71
3.75498e-71
8.53187e-71
2.71326e-76
2.14237e-76
2.2995e-76
3.06357e-76
-3.55534e-78
8.27455e-78
5.88352e-79
5.53568e-79
8.10099e-75
7.35677e-75
1.13247e-76
-7.68053e-76
-6.70324e-73
-3.77857e-73
-6.42292e-73
-9.305e-73
-5.94778e-74
-2.26595e-73
-1.02083e-72
-1.12187e-72
-1.07091e-72
-9.63474e-73
-4.68185e-72
-5.31835e-72
-6.38367e-72
-4.71474e-72
-9.31199e-72
-8.20383e-72
-7.50126e-72
-7.55453e-72
-2.48265e-73
9.09415e-72
-1.26354e-71
-1.8783e-71
1.47837e-71
-7.98974e-73
7.25744e-71
7.33127e-71
-3.03695e-73
4.91252e-73
-6.2984e-73
-8.62159e-73
7.02295e-72
4.76881e-72
1.54973e-98
-1.30821e-97
5.79569e-97
-2.83403e-96
-4.71071e-96
4.89158e-96
1.41098e-92
2.48483e-92
-4.99537e-90
-3.21398e-89
-1.00107e-82
-1.50364e-82
-9.53992e-83
-9.00928e-83
-4.71671e-84
-1.55541e-84
-3.087e-85
-4.61505e-85
6.37629e-87
2.33693e-86
1.91726e-88
4.98305e-88
2.48068e-100
1.55993e-101
1.86296e-97
4.65206e-98
-1.92993e-91
-6.70747e-92
2.58745e-90
1.14026e-90
-2.57794e-92
-5.01046e-92
-4.01782e-92
-1.27903e-100
6.30969e-100
1.32337e-99
2.13613e-98
5.26473e-96
-1.23729e-95
-1.74113e-95
8.2576e-94
1.21379e-93
1.12052e-93
1.693e-93
-2.45592e-93
-1.89608e-93
-7.45751e-94
-2.84813e-94
-1.39032e-96
-2.84528e-96
-2.8239e-95
-5.84307e-95
1.9302e-96
7.9e-96
2.07561e-103
5.31353e-103
-3.01104e-98
5.98812e-99
4.73413e-115
1.63295e-115
9.59998e-118
-8.30098e-118
1.95589e-120
-2.5541e-121
8.57274e-127
-6.65851e-127
2.02264e-128
4.62643e-129
8.9497e-126
-7.62862e-127
3.74133e-113
5.5497e-113
1.21485e-104
-1.63355e-104
1.0202e-108
2.09891e-109
5.37719e-113
7.22759e-112
-4.3689e-113
3.72197e-112
3.99474e-117
-2.28805e-116
-9.07789e-128
-2.48704e-128
-3.26976e-70
-7.47065e-70
6.40102e-72
1.11759e-71
2.72806e-71
2.0078e-71
7.80003e-72
2.70153e-72
6.2451e-71
3.88773e-71
3.80557e-71
-4.99986e-69
-3.55534e-69
-2.14212e-66
-2.41964e-66
-8.06653e-73
-1.58235e-72
1.02007e-72
9.75388e-71
1.12149e-70
9.66699e-70
5.65533e-70
-3.09509e-70
4.96825e-70
3.79618e-69
1.30329e-71
4.76539e-71
-1.0517e-71
-4.02005e-72
-2.85503e-74
-8.5766e-74
-3.02816e-73
7.62472e-74
3.4254e-101
1.83622e-103
-2.07849e-110
-9.60796e-111
4.23366e-107
-6.74675e-105
-3.22715e-101
6.76009e-102
1.57021e-101
1.99725e-100
8.20173e-113
-2.47449e-112
1.06852e-113
1.06134e-113
-1.36842e-76
-2.12852e-76
-2.80715e-76
-3.78588e-76
3.54136e-85
1.56945e-85
-2.65151e-91
-3.37827e-91
-8.30904e-90
4.91328e-90
-3.10763e-86
-2.37693e-87
-5.30015e-78
-7.63803e-78
4.74948e-82
2.52157e-82
-1.95484e-85
-9.18252e-86
-1.48103e-82
-8.78941e-83
-1.19289e-87
-6.40266e-88
1.09185e-83
1.58447e-83
-2.39564e-72
-2.37919e-72
-5.59051e-73
1.76944e-75
-1.20116e-71
-1.37106e-71
-7.16887e-72
-7.55737e-72
-4.06165e-72
-4.01955e-72
-1.43805e-72
-8.07949e-73
-3.75167e-73
-1.10634e-72
-1.66617e-72
-2.3548e-72
2.55432e-75
3.51121e-75
1.71977e-75
-1.49491e-74
1.58689e-74
-7.47789e-75
-1.60292e-73
-1.28311e-75
-1.32116e-74
1.39268e-73
1.20128e-73
4.40423e-74
3.60059e-76
-1.16966e-71
-1.31731e-71
-6.96896e-74
-6.93383e-74
-1.47929e-73
-1.48482e-73
-2.71454e-72
-2.97491e-72
8.89965e-73
1.31787e-72
1.15598e-72
1.29689e-72
6.72881e-75
-4.63648e-76
1.16767e-74
6.63258e-74
8.84643e-74
8.57325e-74
6.85421e-74
1.23557e-75
2.27116e-74
1.62656e-74
-1.71639e-74
-1.15286e-76
5.45518e-77
6.69138e-79
1.03449e-78
-7.1001e-72
-1.47329e-71
-5.60738e-72
-6.02043e-74
-1.05078e-72
1.29619e-73
1.05986e-73
7.27121e-74
3.82011e-74
7.88039e-74
-6.47482e-73
1.03858e-72
8.81116e-72
2.89588e-72
-2.81102e-70
-2.22174e-70
-1.68637e-70
-1.44124e-70
-6.59723e-71
-6.94054e-71
-1.27075e-70
1.34319e-70
4.48158e-70
-7.17212e-71
-5.50077e-71
-5.46745e-71
-5.48039e-71
-3.26554e-71
-3.25185e-71
-1.18241e-70
-9.98979e-71
1.05973e-70
2.14183e-70
5.07735e-76
3.28536e-76
2.04152e-77
2.07193e-78
3.32006e-76
3.15493e-76
-1.40823e-76
-3.16348e-77
-3.14106e-77
-1.19646e-77
2.45406e-78
4.25945e-78
-5.3965e-76
-2.40689e-76
-6.23278e-76
1.25298e-75
-5.31748e-73
-3.07755e-73
-1.52542e-72
-1.38446e-72
-1.35688e-72
-1.51234e-72
-1.5881e-72
-1.25743e-72
-8.00303e-72
-9.27719e-72
-4.99428e-72
-3.7581e-72
-1.22546e-71
-1.0763e-71
-5.82373e-72
-8.80508e-72
-9.8366e-72
-1.47461e-71
9.06869e-71
8.98683e-71
-3.40977e-73
8.17091e-73
-1.42118e-81
-1.18882e-81
5.00382e-96
-2.03598e-96
9.77259e-95
8.51086e-95
-5.00017e-95
1.80371e-95
-7.00253e-95
-2.54036e-95
-4.31357e-93
-1.17918e-93
1.7359e-91
2.54821e-91
2.74478e-86
1.1438e-86
-4.42747e-84
-2.03976e-84
1.48952e-85
-8.59797e-85
-1.19655e-83
-3.4681e-83
8.59113e-86
1.41976e-85
-1.28617e-84
-4.38026e-84
-1.95804e-85
4.59505e-87
1.65295e-86
2.24303e-87
1.81874e-86
1.09734e-86
1.51036e-88
5.37105e-89
6.654e-105
-2.65617e-105
-1.02277e-100
-2.43664e-99
-1.17258e-97
-2.5433e-97
-1.2798e-99
-4.72404e-99
1.52587e-92
2.36735e-92
-2.0496e-92
4.41465e-91
1.45331e-91
3.77e-92
1.91493e-91
9.13749e-92
-9.60141e-93
-1.09328e-92
4.45783e-98
3.03076e-98
1.54562e-97
3.99944e-96
2.02041e-95
2.11577e-94
-5.47303e-95
-3.23447e-95
1.91184e-94
-1.48834e-94
-2.46297e-92
-9.34027e-93
-5.65454e-94
2.64969e-94
1.02565e-95
1.02312e-96
-1.15592e-95
-1.03825e-95
-1.02192e-94
-3.89951e-95
-6.53336e-97
-1.36134e-96
-1.1175e-106
-3.65492e-107
-2.90214e-99
-4.85394e-99
2.33746e-99
-1.99421e-99
-9.24663e-99
-3.50182e-107
1.79037e-107
-1.01028e-119
-1.60213e-120
1.93082e-123
-4.41134e-122
4.02885e-125
-5.86419e-125
7.51904e-124
3.13261e-123
2.56314e-124
1.03654e-123
-1.60949e-126
-6.8504e-126
-1.2407e-126
7.49947e-128
-2.4153e-127
3.00211e-125
-2.12765e-126
3.86527e-127
1.93148e-99
7.25563e-99
-1.78066e-106
1.12401e-107
-5.21225e-110
-3.69334e-110
-5.99477e-109
-2.57238e-109
-5.05e-114
1.79049e-113
-4.60795e-112
3.381e-112
4.13282e-115
-6.08575e-116
-9.22625e-120
9.06265e-120
-2.89617e-129
-6.7859e-130
-4.02687e-75
-3.81983e-75
8.64587e-72
1.21082e-71
1.0807e-71
1.36674e-71
1.5721e-71
1.13341e-71
8.11586e-72
6.61685e-72
-1.1971e-72
-2.8071e-71
-2.14236e-70
-1.78954e-70
-9.04709e-68
-7.80955e-68
-1.87795e-66
-1.59964e-66
-3.43e-67
-4.9371e-67
1.39119e-71
8.52311e-72
-1.09254e-68
-2.0744e-68
3.87519e-70
2.0429e-70
5.06401e-69
5.60073e-69
6.33363e-69
2.13665e-69
2.99112e-69
3.18935e-69
-9.73437e-71
1.08156e-70
4.69901e-70
1.92831e-70
1.89801e-81
4.24622e-81
5.38502e-71
1.10735e-70
1.46345e-84
2.84571e-83
4.65142e-93
6.37572e-93
8.35918e-108
4.16963e-108
-2.95598e-110
-1.98639e-110
-2.36081e-105
-5.18244e-105
3.26628e-101
3.44716e-102
2.63189e-102
-7.35594e-102
1.60349e-99
6.36873e-99
4.65994e-101
1.66772e-101
-2.83072e-107
6.44855e-106
1.71103e-116
7.49806e-117
6.01661e-115
3.33024e-115
3.62595e-118
-4.21649e-118
-1.48157e-75
-2.06469e-75
-4.9362e-76
-6.21444e-76
1.44833e-81
7.26405e-82
-7.51154e-82
-3.29734e-82
-5.71599e-90
3.90136e-90
8.74086e-90
-6.79865e-87
-7.06963e-86
-5.12137e-76
-3.22229e-76
5.25992e-81
1.6093e-81
-2.37428e-82
-1.49067e-82
-2.32589e-84
-1.28873e-84
-7.25846e-88
-9.34362e-88
-1.93027e-81
-2.844e-82
3.42532e-84
1.79087e-84
-9.1309e-86
-5.10208e-86
-4.63213e-80
8.31e-82
-4.3174e-72
-4.03121e-72
-7.75581e-73
-8.39925e-74
-9.9964e-72
-1.03964e-71
-7.51048e-72
-7.52345e-72
-3.33906e-72
-3.3634e-72
-2.54241e-72
-1.29923e-72
-1.08021e-72
-1.04115e-72
1.08994e-78
-1.37894e-80
7.49617e-76
-2.46002e-74
-2.64609e-72
-9.98873e-72
-8.98528e-74
-9.04233e-74
-3.14261e-72
1.64593e-72
1.34395e-72
1.70073e-73
3.78445e-73
-2.00193e-74
-3.45252e-76
-1.24307e-75
2.43442e-73
4.23509e-73
2.61423e-73
-2.63912e-75
-7.27315e-76
1.56111e-76
-8.89759e-79
2.92193e-77
-3.5333e-79
-6.62153e-72
-1.53754e-71
2.29747e-73
4.88179e-73
2.00045e-73
2.2253e-73
3.1176e-74
3.51756e-72
8.74169e-73
5.7461e-73
8.40672e-72
-1.79482e-70
-2.11069e-70
-1.76591e-70
-5.4556e-71
-6.23768e-72
-5.60901e-71
-1.6188e-70
2.9496e-70
8.7205e-70
-6.73285e-71
-1.1599e-70
3.62733e-70
9.57304e-71
-8.33808e-71
-8.34879e-71
-4.73959e-71
-3.70888e-71
-6.41647e-71
-5.88042e-71
3.99309e-75
2.13308e-75
-1.47588e-75
-1.85753e-75
1.84891e-76
1.56407e-76
7.12476e-77
3.86459e-77
-4.77756e-78
-3.46069e-77
-1.00651e-77
-7.29033e-80
5.41093e-79
-1.59933e-76
2.91909e-75
8.87314e-76
-2.70998e-76
-5.65301e-72
-5.59963e-72
-2.08776e-72
-1.88299e-72
-8.19282e-73
-6.59095e-73
-1.02068e-71
-1.19939e-71
-4.43729e-72
-6.72773e-72
4.91021e-71
3.30468e-71
-4.9146e-88
-2.41359e-88
-1.06067e-78
-4.20667e-79
-9.53035e-96
-2.07199e-95
-2.00537e-86
-5.69901e-86
-2.77542e-90
-9.95816e-91
-3.0433e-97
-2.5133e-96
3.60182e-94
1.63593e-94
1.69943e-95
6.50816e-96
-4.36631e-96
-3.85303e-92
-1.35338e-90
-1.53668e-90
-2.67711e-90
-3.86444e-91
-1.73065e-91
-1.08891e-89
-6.49453e-90
-1.04575e-84
-4.54891e-84
-4.86233e-83
-3.11595e-83
-6.15389e-83
-4.5058e-83
-2.41904e-82
-5.95699e-82
-9.52408e-83
4.46659e-87
1.56221e-85
-1.08518e-84
-3.95213e-84
8.6007e-87
2.67333e-86
6.36927e-87
5.75396e-87
-1.19926e-89
-1.00964e-89
1.20702e-88
3.36041e-88
-2.1756e-105
-1.58408e-105
-3.12813e-101
-2.63795e-100
2.30799e-98
3.02478e-99
2.18679e-98
7.99112e-97
6.79143e-98
1.35796e-94
7.60553e-95
-1.70556e-92
3.166e-92
3.02559e-92
5.56275e-92
8.89384e-90
3.44886e-90
-1.27392e-90
6.58521e-91
-1.38714e-91
-2.12976e-91
2.91224e-92
3.48801e-93
-1.02471e-92
-5.26619e-102
-3.45799e-101
1.07889e-99
-7.09061e-99
-2.09173e-95
-1.03609e-94
-1.16085e-96
-6.32024e-96
-1.90065e-94
1.60429e-94
-3.3041e-93
-9.00461e-93
-4.82938e-93
-2.97306e-93
5.50891e-94
-1.45921e-95
-4.39473e-96
9.71998e-95
1.89199e-94
-1.85796e-94
-2.63698e-96
-1.00798e-94
9.72343e-98
-1.45383e-96
5.53277e-96
2.93239e-104
-2.07196e-105
-4.0882e-100
-1.26587e-99
-2.02867e-98
-1.75095e-99
-3.59007e-99
-4.32795e-99
-1.101e-108
-3.75384e-109
1.69015e-118
-4.28219e-118
-1.56956e-123
5.40377e-124
1.11617e-124
-3.80075e-122
-1.16741e-122
-1.86274e-118
-1.51095e-118
5.78145e-120
1.56307e-119
4.69142e-123
-3.45097e-121
-1.40709e-124
-2.3423e-124
2.0501e-127
4.12068e-127
2.46775e-127
5.83344e-126
-7.95728e-125
-7.20194e-125
1.12348e-124
1.94218e-124
-5.22424e-122
-1.01367e-121
2.25476e-101
1.46969e-101
-5.72987e-104
-2.86044e-104
-4.06679e-107
-1.84594e-107
-5.59476e-106
-1.12416e-105
-7.35711e-107
-4.25495e-106
3.89583e-110
1.00176e-108
2.1688e-110
-2.28452e-109
1.32575e-116
1.27618e-116
1.36571e-112
6.79878e-112
1.16005e-112
8.82467e-114
3.53314e-116
3.49679e-116
5.0894e-124
1.38463e-122
4.6659e-129
-2.02642e-128
-4.09555e-130
-1.41031e-73
-9.0113e-74
7.15622e-68
6.5215e-68
-4.67986e-71
-1.6264e-70
-1.01066e-70
2.93287e-74
5.33299e-73
-2.42842e-73
-8.58879e-73
3.43675e-72
1.88757e-73
-5.31049e-73
3.25128e-76
1.50128e-76
-5.98733e-69
-8.16975e-69
-4.11741e-67
-3.22402e-67
-3.23358e-67
2.63984e-68
-1.72774e-66
-1.78251e-66
-9.03631e-67
-1.40424e-66
9.8893e-69
-6.12794e-71
-1.31753e-70
-6.12395e-70
-9.89625e-69
-1.73658e-68
1.84813e-70
2.47184e-70
2.5048e-70
1.05658e-69
4.85369e-69
-1.3738e-69
1.00467e-68
1.66278e-68
1.26992e-69
2.65329e-69
4.29244e-70
3.38437e-66
4.45079e-66
3.27061e-66
4.86283e-76
2.08445e-75
-1.4692e-75
1.34683e-71
3.1532e-72
-3.62391e-86
-6.74676e-86
1.02304e-86
-8.89335e-87
8.98887e-103
-1.43203e-102
-4.69987e-106
-9.63358e-106
-5.40897e-108
-2.1137e-107
-7.17589e-113
3.88114e-112
5.71343e-108
9.11536e-108
1.45104e-106
9.16709e-107
3.52233e-96
-2.51032e-95
7.02662e-103
-3.01957e-102
-3.26799e-101
-9.39838e-102
-2.69755e-98
2.50847e-98
-5.95408e-101
-4.66914e-101
1.87762e-102
4.10551e-102
6.42026e-111
-1.26078e-110
1.60301e-116
-7.44933e-119
-3.01387e-119
-4.15866e-119
5.54488e-116
1.2808e-115
1.62948e-116
4.57422e-116
-7.29267e-119
2.54658e-119
-5.48323e-119
-5.65423e-119
-7.218e-76
-1.04384e-75
-9.68383e-77
-9.13349e-77
9.23886e-82
1.8394e-81
-2.47204e-82
-5.66647e-82
-4.61294e-82
-2.06922e-81
4.80311e-85
9.20767e-86
-1.79213e-85
5.5415e-85
-1.13747e-77
-6.52483e-78
6.32289e-79
1.02923e-78
-5.22874e-81
-2.94497e-81
8.7785e-82
1.59526e-81
-1.19551e-84
-6.18033e-85
-1.16393e-87
-1.38163e-87
-1.00955e-81
-1.2159e-81
-3.105e-82
-1.60981e-82
1.09687e-83
6.23214e-84
-2.24601e-86
-7.14596e-87
-6.95576e-76
-5.39717e-76
-3.88924e-72
-5.98086e-72
-4.34095e-72
-9.51719e-73
-1.06202e-72
-9.00264e-72
-8.99364e-72
-2.72303e-72
-6.94094e-78
7.78394e-76
9.71822e-76
-1.86726e-72
-1.57748e-72
-1.90772e-72
1.31799e-72
7.38598e-73
2.4073e-73
2.81438e-73
1.00173e-73
-3.54676e-74
-6.39398e-75
3.16577e-74
-5.41046e-76
1.03207e-77
-2.30784e-79
6.12789e-75
-6.7837e-76
2.12249e-77
-1.24301e-71
-1.14173e-71
1.96547e-73
1.5193e-73
2.40959e-72
1.23062e-72
3.03689e-72
4.22163e-72
1.79645e-73
2.12949e-72
5.97855e-73
-2.03258e-70
-2.40451e-70
-6.1106e-71
-1.22708e-71
-6.16515e-71
-1.54746e-70
7.59795e-70
2.68271e-70
2.27369e-70
4.03994e-71
-6.88976e-71
-1.36904e-70
-6.80742e-71
-6.86253e-71
7.03454e-76
8.84554e-76
-1.92888e-75
-2.01984e-76
8.4889e-77
9.2399e-77
1.09231e-76
-4.86967e-77
2.55061e-78
-8.56913e-79
5.84449e-75
-4.13871e-72
-4.18233e-72
-5.23248e-72
-4.64644e-72
-1.88406e-72
-2.10524e-72
-3.61681e-73
1.20476e-71
2.91956e-79
4.70785e-79
-4.45046e-75
-4.41198e-75
-1.00488e-78
-8.17508e-79
-8.04218e-97
-2.33284e-96
1.93905e-99
4.51232e-100
-2.24908e-86
-7.53381e-86
4.5047e-95
-2.37653e-94
-3.61668e-91
-8.87667e-92
-3.4858e-90
-3.15516e-90
-2.33284e-98
-6.33107e-97
3.95708e-97
1.79433e-97
-6.8656e-96
-7.62478e-96
-1.80025e-97
5.23247e-97
5.71087e-91
1.11815e-90
-8.27235e-90
-6.08312e-90
1.20275e-91
-1.39398e-90
-5.5967e-91
-1.04084e-90
1.47752e-85
9.72669e-87
-6.39543e-86
-1.01671e-84
-1.75797e-83
-5.6963e-83
1.63162e-84
9.80201e-85
-1.98052e-82
-1.23836e-82
-8.98393e-83
-7.81998e-83
-5.18088e-82
-2.19101e-82
9.07044e-86
7.38175e-86
2.14143e-87
1.74455e-87
2.12132e-86
4.44972e-86
1.85044e-89
2.04372e-89
1.11687e-88
2.75625e-88
-7.22191e-105
-5.04349e-104
-7.74982e-106
-8.88154e-106
-2.86087e-100
-2.91119e-100
-3.12689e-97
-3.2935e-97
8.83381e-97
2.53694e-96
8.96414e-98
5.9378e-97
-8.32554e-97
-3.43221e-97
-1.54619e-94
1.14042e-94
6.66229e-92
-7.21559e-92
-1.69322e-91
-5.35871e-91
5.18207e-90
-1.26946e-89
-9.8298e-93
3.84155e-92
-7.85211e-93
2.47163e-91
7.26036e-92
5.42374e-92
-5.92025e-93
4.26115e-91
-1.46627e-92
1.78546e-93
-7.56784e-92
7.84906e-93
1.85405e-96
3.61936e-96
-4.05218e-99
-4.60584e-100
1.24642e-97
-5.97877e-98
-8.83604e-99
4.47708e-96
5.15402e-96
-2.22732e-95
-3.98005e-96
3.35467e-96
6.38061e-95
1.91329e-94
2.31977e-92
3.77474e-92
-1.05972e-92
-4.64211e-93
1.49112e-96
1.35027e-96
-2.37275e-96
9.4734e-96
4.94318e-96
4.49675e-96
3.35089e-95
6.10896e-95
-3.40853e-96
2.66472e-96
1.64278e-107
1.65847e-108
8.34718e-102
4.33156e-102
2.93341e-100
-3.46357e-101
-3.23598e-99
3.52931e-100
-7.02273e-99
1.00285e-98
2.04368e-107
2.86438e-107
8.76276e-113
1.45457e-113
2.40943e-119
-2.24341e-118
-9.07633e-120
1.20802e-119
9.96875e-122
1.44952e-121
-2.15023e-122
-2.22022e-122
-4.23254e-122
-4.61179e-122
3.99105e-119
9.94224e-119
-4.77926e-121
-5.11305e-121
-1.01074e-121
-1.34618e-122