/*--------------------------------*- C++ -*----------------------------------*\
  =========                 |
  \\      /  F ield         | OpenFOAM: The Open Source CFD Toolbox
   \\    /   O peration     | Website:  https://openfoam.org
    \\  /    A nd           | Version:  7
     \\/     M anipulation  |
\*---------------------------------------------------------------------------*/
FoamFile
{
    version     2.0;
    format      ascii;
    class       volScalarField;
    location    "420";
    object      T;
}
// * * * * * * * * * * * * * * * * * * * * * * * * * * * * * * * * * * * * * //

dimensions      [0 0 0 1 0 0 0];

internalField   nonuniform List<scalar> 
238806
(
0.603342
0.601528
0.56786
0.566349
0.57104
0.59349
0.593957
0.603425
0.605446
0.564055
0.562171
0.576942
0.52237
0.520212
0.518036
0.525171
0.560704
0.557926
0.620193
0.620667
0.53665
0.532747
0.524709
0.522949
0.518681
0.564642
0.561201
0.560484
0.553298
0.554167
0.619343
0.620501
0.539522
0.545135
0.551784
0.556592
0.0135734
0.0134351
0.566978
0.569802
0.565976
0.560023
0.613959
0.614979
0.619277
0.618832
0.513704
0.520988
0.550614
0.555878
0.579173
0.580722
0.527499
0.525291
0.066302
0.0666351
0.566278
0.568861
0.569108
0.575053
0.572232
0.571543
0.571385
0.570466
0.573842
0.618139
0.617905
0.607605
0.605906
0.593944
0.591215
0.538348
0.532651
0.552403
0.547282
0.569675
0.567252
0.55158
0.556352
0.208478
0.208966
0.55739
0.56279
0.602134
0.603208
0.581969
0.578867
0.551209
0.553953
0.556978
0.554294
0.578897
0.575219
0.610627
0.609827
0.569865
0.573327
0.570476
0.565927
0.561445
0.617409
0.608367
0.607085
0.60539
0.605859
0.496588
0.491821
0.544993
0.540025
0.541848
0.536153
0.568409
0.571506
0.576962
0.575479
0.524101
0.529258
0.0129394
0.012974
0.0128421
0.518833
0.511467
0.599107
0.597896
0.595743
0.596174
0.511114
0.510303
0.545416
0.547138
0.572657
0.553161
0.550861
0.553819
0.577669
0.581525
0.61008
0.61143
0.531283
0.527326
0.528966
0.531978
0.57497
0.61256
0.610274
0.612074
0.610908
0.605053
0.606345
0.597924
0.596109
0.586264
0.584378
0.499624
0.493981
0.532781
0.528029
0.534693
0.529024
0.532058
0.528223
0.565678
0.563333
0.58076
0.579416
0.550618
0.555471
0.234489
0.234005
0.0136211
0.0134825
0.553253
0.558373
0.399645
0.398214
0.398318
0.601169
0.600001
0.575095
0.573547
0.502476
0.502385
0.547543
0.554795
0.557886
0.557045
0.602544
0.602112
0.6118
0.613119
0.613714
0.614766
0.601464
0.600035
0.568705
0.571745
0.572991
0.546818
0.547515
0.569075
0.567252
0.618895
0.619598
0.611292
0.609871
0.609476
0.607793
0.586269
0.582829
0.593456
0.595284
0.445312
0.447147
0.484233
0.478399
0.509424
0.515568
0.527873
0.533793
0.543736
0.548771
0.568122
0.564912
0.574299
0.577097
0.575764
0.577012
0.551471
0.556308
0.310019
0.315597
0.133269
0.136878
0.137242
0.141024
0.0480575
0.0462461
0.598649
0.602019
0.585519
0.591265
0.495794
0.488665
0.369967
0.366099
0.59694
0.59578
0.580087
0.581552
0.574777
0.571444
0.55746
0.554065
0.526562
0.5284
0.563474
0.567125
0.609705
0.611824
0.610865
0.612461
0.611354
0.612582
0.558307
0.558687
0.598516
0.6004
0.568599
0.566907
0.537137
0.531335
0.578038
0.544519
0.585939
0.585066
0.58865
0.618191
0.61739
0.6153
0.614198
0.609081
0.610288
0.600172
0.602421
0.600906
0.601083
0.594845
0.593868
0.479466
0.47601
0.49991
0.503485
0.480257
0.474594
0.495702
0.489356
0.523041
0.516753
0.530207
0.523955
0.530888
0.525277
0.523626
0.521325
0.557547
0.553405
0.568929
0.567549
0.573483
0.57093
0.525405
0.526272
0.545699
0.546553
0.544771
0.540034
0.241535
0.246036
0.282928
0.288314
0.221581
0.216865
0.20439
0.20393
0.120451
0.120731
0.0462166
0.0480381
0.0127365
0.549131
0.553887
0.510859
0.517829
0.0718494
0.0692893
0.479937
0.484662
0.396961
0.394413
0.594718
0.592838
0.597761
0.59816
0.576855
0.578377
0.568747
0.565441
0.541283
0.542173
0.539575
0.537808
0.593338
0.596605
0.607031
0.610928
0.607616
0.605847
0.605564
0.612853
0.611664
0.565867
0.56627
0.587315
0.590227
0.596493
0.599038
0.558652
0.554836
0.521821
0.58918
0.585832
0.559433
0.564583
0.573062
0.575938
0.576263
0.57297
0.604904
0.60299
0.617202
0.618104
0.61527
0.614898
0.614495
0.612994
0.612833
0.611045
0.568536
0.572152
0.579653
0.583036
0.603432
0.602842
0.605119
0.604138
0.595508
0.595394
0.592455
0.590607
0.581999
0.578689
0.452943
0.450885
0.505788
0.510076
0.476206
0.470711
0.491953
0.485772
0.506606
0.499862
0.517335
0.510391
0.52696
0.521421
0.526369
0.528503
0.553673
0.549558
0.571605
0.573035
0.556674
0.561108
0.541753
0.546706
0.540715
0.541565
0.549392
0.264851
0.269336
0.309952
0.315504
0.271857
0.266615
0.256098
0.261387
0.136798
0.13317
0.14802
0.151351
0.127451
0.124069
0.0240624
0.0241179
0.110811
0.113863
0.578704
0.581405
0.577656
0.504901
0.502058
0.504909
0.501177
0.502952
0.505659
0.0687476
0.069089
0.424115
0.419864
0.403193
0.40079
0.396523
0.396332
0.478404
0.479194
0.597955
0.59948
0.594046
0.592848
0.585513
0.585966
0.578103
0.560915
0.560939
0.557613
0.536426
0.529945
0.531148
0.532478
0.60493
0.607718
0.607844
0.609177
0.608218
0.609333
0.608588
0.613263
0.614362
0.550235
0.550602
0.564981
0.561286
0.572873
0.569439
0.598937
0.596835
0.564711
0.568839
0.550327
0.55317
0.550546
0.525133
0.540865
0.541691
0.539037
0.537098
0.550324
0.572587
0.598147
0.600458
0.611227
0.610002
0.616702
0.615821
0.614291
0.615857
0.618152
0.617141
0.612633
0.613742
0.575294
0.571836
0.589009
0.585539
0.596161
0.599069
0.598241
0.598385
0.602761
0.60094
0.589152
0.589205
0.59087
0.591839
0.58106
0.582927
0.436292
0.438784
0.474131
0.481073
0.519424
0.524004
0.496298
0.501186
0.485793
0.491154
0.497955
0.503737
0.488134
0.482126
0.503017
0.496378
0.513738
0.506885
0.532157
0.536987
0.522917
0.517469
0.53997
0.541104
0.535492
0.538505
0.549638
0.545566
0.560728
0.56487
0.555601
0.554359
0.577887
0.578363
0.564873
0.561679
0.557983
0.553864
0.546885
0.541909
0.535205
0.53029
0.201471
0.197382
0.246023
0.241531
0.283009
0.288416
0.229508
0.229042
0.216773
0.221508
0.189793
0.185719
0.141977
0.141587
0.149065
0.149106
0.12379
0.127182
0.0208847
0.0200156
0.013409
0.0132693
0.0751996
0.0753657
0.0442778
0.0443214
0.560907
0.555262
0.601165
0.59937
0.491649
0.488568
0.547645
0.541666
0.541172
0.548194
0.508437
0.515266
0.0784629
0.0788211
0.0170947
0.0169154
0.347951
0.346502
0.379968
0.376159
0.376532
0.379476
0.394935
0.393089
0.394345
0.398479
0.592094
0.589719
0.59854
0.600854
0.602458
0.604213
0.592679
0.595026
0.588354
0.588827
0.575952
0.579169
0.568918
0.565234
0.494024
0.494455
0.548392
0.544907
0.546071
0.538375
0.529998
0.585764
0.584997
0.604085
0.60293
0.609513
0.607281
0.607906
0.607027
0.612601
0.613752
0.546024
0.546386
0.570563
0.567169
0.562156
0.562546
0.594605
0.596568
0.600872
0.60292
0.552482
0.548495
0.548388
0.564756
0.563262
0.560612
0.579666
0.581649
0.584596
0.58255
0.57929
0.561242
0.555951
0.531465
0.57997
0.602655
0.600575
0.616496
0.615461
0.616431
0.616762
0.615893
0.614233
0.577905
0.576989
0.574565
0.579201
0.57608
0.595451
0.598046
0.600182
0.597369
0.601867
0.60469
0.601831
0.602811
0.598465
0.596696
0.584317
0.585259
0.592369
0.592452
0.588318
0.585212
0.469847
0.473091
0.454427
0.451866
0.450281
0.451544
0.4784
0.48162
0.513413
0.51876
0.514969
0.519454
0.500701
0.505709
0.486807
0.481587
0.501852
0.507766
0.499393
0.492889
0.510182
0.503368
0.536159
0.54106
0.531335
0.533426
0.527353
0.523589
0.560554
0.557335
0.561274
0.557118
0.561498
0.559208
0.570208
0.569817
0.564701
0.567916
0.567049
0.558885
0.563828
0.536881
0.536756
0.547257
0.552
0.532549
0.537529
0.482671
0.487276
0.201348
0.201236
0.232807
0.228382
0.237787
0.238446
0.298538
0.293138
0.266754
0.272021
0.255852
0.26116
0.136688
0.133037
0.171765
0.171471
0.176366
0.176568
0.154156
0.157651
0.155284
0.158867
0.135709
0.13914
0.134381
0.130884
0.0565962
0.0586364
0.0231498
0.0241811
0.0184162
0.0176807
0.0134863
0.0133476
0.0132806
0.0131374
0.0727357
0.0726549
0.0129507
0.0131221
0.0129684
0.549715
0.551698
0.600413
0.596737
0.596638
0.604962
0.601806
0.611571
0.61528
0.503824
0.501099
0.533437
0.537307
0.538314
0.543919
0.571827
0.569054
0.566489
0.569415
0.422487
0.412565
0.0526369
0.0507646
0.0705729
0.0709135
0.0529757
0.0532627
0.0277005
0.027757
0.392959
0.398169
0.432508
0.42833
0.385553
0.381528
0.372278
0.368317
0.386101
0.38323
0.396751
0.39684
0.395301
0.40057
0.398709
0.578851
0.58191
0.596769
0.594282
0.599467
0.601348
0.599623
0.595105
0.596287
0.597137
0.587195
0.588886
0.576639
0.576119
0.582276
0.58495
0.561483
0.565125
0.501486
0.502657
0.553323
0.549843
0.542237
0.549981
0.582661
0.581148
0.604901
0.606001
0.604101
0.603651
0.607479
0.605928
0.612104
0.610812
0.55433
0.554704
0.563629
0.559949
0.581863
0.585256
0.594743
0.592627
0.602186
0.603935
0.559258
0.563153
0.562257
0.521322
0.516724
0.523858
0.550789
0.548104
0.540235
0.537147
0.53573
0.529131
0.581339
0.585094
0.563707
0.568154
0.614425
0.616289
0.613451
0.612369
0.614862
0.613643
0.615737
0.616783
0.585335
0.584353
0.581797
0.592224
0.595196
0.600848
0.598101
0.605975
0.605727
0.598709
0.600449
0.585752
0.585786
0.587577
0.589454
0.443817
0.441174
0.441122
0.443301
0.458009
0.456567
0.489132
0.485747
0.506881
0.523781
0.52845
0.505253
0.501075
0.489924
0.495427
0.511714
0.505679
0.52035
0.526655
0.54486
0.546028
0.51765
0.514035
0.533701
0.530731
0.547766
0.54466
0.561217
0.564447
0.557142
0.554898
0.56026
0.561051
0.581714
0.582179
0.582157
0.581676
0.570541
0.568345
0.568467
0.531816
0.531743
0.549221
0.554061
0.534343
0.539367
0.197658
0.197508
0.19727
0.197165
0.223786
0.223767
0.237072
0.237068
0.30058
0.30557
0.293388
0.298803
0.266842
0.272135
0.234908
0.229918
0.226306
0.226359
0.185619
0.185652
0.167863
0.167575
0.189019
0.189253
0.121126
0.117899
0.149089
0.148733
0.144905
0.141501
0.158587
0.162233
0.155812
0.159422
0.122467
0.119155
0.136465
0.14003
0.130629
0.134147
0.0988567
0.0986828
0.0230835
0.0230248
0.0176341
0.0183713
0.0135285
0.0133902
0.0160705
0.016779
0.0473142
0.0456184
0.0726067
0.0751023
0.0441871
0.0442331
0.0349709
0.0350301
0.586988
0.590098
0.590238
0.558932
0.553136
0.587092
0.582877
0.589379
0.593791
0.371322
0.364157
0.598893
0.595502
0.485107
0.481954
0.498229
0.495263
0.551385
0.544974
0.557256
0.553822
0.555707
0.558043
0.451
0.458563
0.401935
0.402796
0.0228964
0.0221356
0.0819563
0.082327
0.0684098
0.0680759
0.0712579
0.0716072
0.0215612
0.0215997
0.0344832
0.0346868
0.485782
0.490608
0.299308
0.300359
0.354138
0.356641
0.47107
0.476064
0.416043
0.420169
0.37375
0.377457
0.388701
0.385725
0.38803
0.39089
0.398241
0.395592
0.393544
0.476744
0.5964
0.594116
0.604609
0.602537
0.591509
0.58998
0.587454
0.590156
0.579376
0.579868
0.568982
0.572031
0.568375
0.572039
0.494825
0.494993
0.489579
0.511663
0.509148
0.564316
0.560879
0.535568
0.532984
0.589244
0.590536
0.590445
0.5885
0.600391
0.599506
0.605679
0.610311
0.608769
0.606028
0.605044
0.560536
0.557146
0.552188
0.553488
0.568535
0.571945
0.592583
0.590107
0.578478
0.579214
0.581933
0.56757
0.570564
0.556377
0.560877
0.539898
0.544937
0.543539
0.562082
0.565449
0.560925
0.555998
0.553527
0.545488
0.54263
0.533202
0.52682
0.576613
0.604097
0.6035
0.611407
0.611857
0.613942
0.615029
0.613827
0.613797
0.591209
0.592074
0.582798
0.580742
0.592543
0.595408
0.598003
0.600364
0.596692
0.597676
0.603404
0.603614
0.588639
0.587679
0.454796
0.451784
0.465782
0.463174
0.448674
0.446318
0.452553
0.453546
0.496348
0.492903
0.496743
0.500349
0.514502
0.509264
0.510421
0.51481
0.513109
0.519342
0.526284
0.52538
0.518711
0.515832
0.54014
0.5432
0.545449
0.541426
0.558915
0.560201
0.552629
0.550427
0.565671
0.564991
0.578384
0.577927
0.573865
0.574359
0.574059
0.571808
0.531424
0.530572
0.526709
0.526715
0.542429
0.544324
0.201611
0.201777
0.219402
0.219379
0.22818
0.232615
0.2646
0.269471
0.242554
0.243449
0.30911
0.310205
0.304259
0.30398
0.287774
0.282439
0.277322
0.277133
0.255505
0.260823
0.230958
0.235918
0.136041
0.132608
0.189721
0.189684
0.194617
0.190296
0.194011
0.194166
0.181097
0.181257
0.176141
0.133989
0.137599
0.14129
0.145012
0.149576
0.145102
0.141687
0.158299
0.161928
0.162528
0.16282
0.152985
0.153054
0.149191
0.145376
0.125087
0.128413
0.136066
0.139545
0.130368
0.133895
0.101848
0.104803
0.114924
0.115064
0.021905
0.0209459
0.0249
0.0238193
0.0191492
0.0191936
0.0145462
0.0141216
0.0134465
0.0133073
0.0149217
0.0144119
0.0473661
0.0456789
0.0785686
0.0786041
0.0581815
0.0580878
0.0407504
0.0406963
0.0425695
0.0425172
0.0261511
0.0261443
0.0131683
0.0131663
0.582598
0.58658
0.566646
0.564332
0.589737
0.586619
0.576984
0.573219
0.595306
0.592952
0.590952
0.529958
0.532174
0.620133
0.622363
0.491755
0.486054
0.488643
0.50767
0.510408
0.538444
0.532008
0.57501
0.574455
0.577356
0.57808
0.562757
0.563466
0.548547
0.412163
0.415672
0.411619
0.42147
0.0494345
0.0496725
0.0197775
0.0195606
0.0615618
0.0613283
0.0761106
0.0764225
0.0659711
0.0656441
0.0223861
0.0224657
0.0333204
0.0331237
0.457163
0.462585
0.47325
0.478161
0.305209
0.30419
0.313703
0.317958
0.331907
0.332381
0.345307
0.344379
0.424262
0.428323
0.374781
0.37072
0.363105
0.359567
0.390612
0.387558
0.382366
0.385208
0.399446
0.401672
0.587566
0.585119
0.589739
0.587335
0.602083
0.604176
0.599071
0.600874
0.58611
0.584302
0.582514
0.582979
0.575943
0.579224
0.57242
0.575559
0.520714
0.520406
0.515359
0.556464
0.555657
0.560393
0.55729
0.542453
0.539227
0.587654
0.584942
0.603797
0.601699
0.608067
0.60999
0.543959
0.545213
0.557451
0.556132
0.603376
0.604843
0.590597
0.592704
0.59723
0.594779
0.549287
0.544045
0.545885
0.563125
0.560668
0.571144
0.57391
0.55504
0.556512
0.559479
0.567902
0.537137
0.537735
0.444597
0.445748
0.568828
0.572486
0.559005
0.553215
0.558041
0.53535
0.531744
0.52987
0.541851
0.539324
0.607236
0.607802
0.60794
0.606278
0.613199
0.613625
0.61927
0.620635
0.619173
0.610205
0.610209
0.61352
0.612944
0.594375
0.595175
0.583849
0.586258
0.58632
0.589474
0.597373
0.59443
0.600324
0.599334
0.460602
0.457388
0.438392
0.433655
0.460483
0.457694
0.473581
0.470872
0.471194
0.465329
0.465647
0.467777
0.490298
0.488042
0.49432
0.492861
0.51015
0.505026
0.530145
0.531196
0.520915
0.523823
0.522551
0.518858
0.549042
0.552193
0.541117
0.537151
0.563317
0.56465
0.565834
0.565492
0.574398
0.573965
0.577602
0.575279
0.53652
0.535671
0.320994
0.320649
0.215093
0.21504
0.212324
0.208001
0.232983
0.228559
0.246067
0.241587
0.269633
0.264571
0.212552
0.211999
0.267713
0.262457
0.297529
0.296883
0.282119
0.288141
0.293572
0.298986
0.266839
0.272195
0.282651
0.288006
0.277461
0.255039
0.260353
0.25026
0.26141
0.256246
0.236094
0.231197
0.119585
0.116371
0.126314
0.129748
0.159155
0.159237
0.181848
0.181995
0.20592
0.206426
0.203457
0.207973
0.175043
0.174729
0.185338
0.1855
0.168751
0.16888
0.130885
0.127471
0.145361
0.145851
0.161272
0.16161
0.151557
0.148148
0.159144
0.155544
0.16475
0.164861
0.145254
0.145148
0.128647
0.125308
0.132952
0.132612
0.141625
0.13796
0.120182
0.123523
0.0712473
0.0688676
0.111382
0.114477
0.108574
0.108474
0.114812
0.0501294
0.0483222
0.0174704
0.0182672
0.0233012
0.0243304
0.0175798
0.0183057
0.017565
0.0183024
0.0162073
0.0168651
0.0140809
0.0145072
0.0136611
0.0136974
0.0143603
0.0148763
0.0133097
0.0131675
0.110814
0.113884
0.0589977
0.0589295
0.0498495
0.0498078
0.053798
0.0518349
0.0392232
0.0391504
0.0424664
0.0424168
0.0286149
0.0286547
0.017685
0.0176822
0.0128234
0.0127375
0.471282
0.472924
0.55773
0.56266
0.559463
0.57159
0.569128
0.575819
0.573865
0.57251
0.583576
0.602118
0.490701
0.48637
0.565897
0.562249
0.617912
0.618566
0.591966
0.595161
0.494696
0.497461
0.545013
0.549238
0.526181
0.53238
0.575896
0.57249
0.577178
0.569989
0.57217
0.573232
0.569196
0.529403
0.534678
0.535117
0.360132
0.359601
0.445646
0.452976
0.299592
0.305755
0.087029
0.0869715
0.0339668
0.0354154
0.0198844
0.0196667
0.0571827
0.0592289
0.0988936
0.0986116
0.0737624
0.0734577
0.0738345
0.0741901
0.0593533
0.0596635
0.0485277
0.048785
0.0172312
0.0170477
0.0293756
0.0295596
0.0167382
0.0161897
0.488278
0.493106
0.482998
0.487796
0.352981
0.348101
0.335892
0.330451
0.328274
0.325945
0.329136
0.34833
0.349339
0.45288
0.447742
0.401127
0.397304
0.377439
0.373281
0.366013
0.362322
0.364125
0.367328
0.407899
0.404907
0.387192
0.384277
0.390983
0.38824
0.472112
0.472295
0.59007
0.587772
0.587429
0.584627
0.600566
0.600007
0.602684
0.604443
0.583177
0.581281
0.59102
0.591487
0.57589
0.572639
0.485848
0.486674
0.520624
0.552707
0.606653
0.607656
0.549407
0.548128
0.606298
0.59049
0.588117
0.595342
0.592325
0.571863
0.574186
0.569795
0.573661
0.57602
0.57599
0.550142
0.543061
0.543889
0.514476
0.491295
0.492332
0.572022
0.576016
0.555772
0.558427
0.542635
0.548018
0.523592
0.600965
0.597798
0.593867
0.605576
0.605726
0.606501
0.605036
0.608874
0.607069
0.61686
0.616887
0.619513
0.618881
0.608164
0.608104
0.611189
0.611781
0.591269
0.593078
0.587825
0.588777
0.592566
0.589534
0.486208
0.48286
0.472473
0.468855
0.454071
0.448658
0.443411
0.456869
0.459191
0.454839
0.448801
0.454624
0.460943
0.477445
0.482545
0.475449
0.485603
0.545816
0.547975
0.535043
0.536146
0.512632
0.509109
0.553273
0.556462
0.561284
0.560997
0.571996
0.57302
0.301577
0.297281
0.374251
0.373548
0.152737
0.156414
0.276916
0.282163
0.269329
0.264753
0.219599
0.219776
0.246337
0.241872
0.232623
0.228194
0.237133
0.286617
0.290913
0.221251
0.221889
0.215999
0.211444
0.267782
0.272389
0.299259
0.304202
0.304596
0.303618
0.304365
0.304086
0.309772
0.315349
0.304441
0.277551
0.277592
0.282813
0.288182
0.254474
0.259764
0.25087
0.250611
0.216255
0.221031
0.231165
0.236085
0.125726
0.122483
0.129652
0.126228
0.155525
0.152096
0.159107
0.202216
0.20217
0.172077
0.168172
0.191085
0.190694
0.198553
0.198101
0.19844
0.198588
0.188177
0.18848
0.18092
0.185156
0.172805
0.172949
0.168619
0.120387
0.123677
0.137817
0.134167
0.157994
0.154494
0.14135
0.144711
0.155028
0.154771
0.160413
0.164125
0.156879
0.156954
0.152969
0.122224
0.118923
0.135398
0.138803
0.132296
0.137753
0.141456
0.119657
0.12299
0.126917
0.112867
0.112845
0.111229
0.114329
0.111563
0.111496
0.108446
0.111617
0.0587381
0.0566961
0.0307214
0.0305904
0.0188236
0.0190259
0.0183792
0.0232234
0.0242523
0.0227834
0.0218059
0.019971
0.0208393
0.0190756
0.0191097
0.0161801
0.0168434
0.0140436
0.0144722
0.0137362
0.0137779
0.0168699
0.0161505
0.0143854
0.0148989
0.0138281
0.0134664
0.0931718
0.0904233
0.0838023
0.0811721
0.0571297
0.0570528
0.0633726
0.0633493
0.0738465
0.0761746
0.0559629
0.0560247
0.0498985
0.0499056
0.0405912
0.0421911
0.0390836
0.0390238
0.0363941
0.0364619
0.0286954
0.0287239
0.012882
0.0128699
0.0128223
0.0127844
0.0127433
0.451394
0.446388
0.61264
0.610001
0.568417
0.572074
0.567308
0.556468
0.569453
0.570874
0.58373
0.578525
0.57459
0.578026
0.370888
0.363786
0.53836
0.536095
0.596169
0.592513
0.615491
0.6157
0.620534
0.62234
0.612991
0.61441
0.599621
0.598091
0.508989
0.516116
0.541111
0.545065
0.525756
0.522688
0.519768
0.575011
0.569764
0.570566
0.590238
0.594595
0.565954
0.567971
0.560998
0.603709
0.605768
0.606246
0.40302
0.405612
0.408734
0.442789
0.432564
0.241418
0.242494
0.175921
0.175603
0.0666277
0.0668129
0.0344671
0.0359318
0.0338264
0.0352697
0.0199884
0.0197698
0.0256786
0.024644
0.059456
0.0574035
0.0957173
0.0960938
0.0711725
0.070875
0.0692617
0.0689513
0.0764762
0.0768387
0.0606639
0.0603568
0.0550392
0.0553346
0.0223326
0.0224688
0.0180074
0.0175597
0.0168272
0.0166534
0.0311098
0.0312752
0.028757
0.0288696
0.0212281
0.0204016
0.0147636
0.0146042
0.478329
0.483365
0.475164
0.470329
0.34995
0.354916
0.32914
0.334508
0.362764
0.365312
0.333526
0.331898
0.350615
0.352141
0.419155
0.413552
0.426728
0.430143
0.380229
0.37597
0.378763
0.382679
0.364418
0.360808
0.370463
0.373528
0.404941
0.407563
0.392893
0.389747
0.392851
0.39005
0.385441
0.382593
0.465688
0.461813
0.5934
0.594556
0.592581
0.584851
0.582125
0.598579
0.597854
0.584584
0.483787
0.471474
0.474709
0.603597
0.603571
0.60519
0.587941
0.585179
0.555892
0.559061
0.583626
0.580716
0.579669
0.564952
0.534916
0.484736
0.484994
0.516562
0.509999
0.508643
0.568092
0.564508
0.545049
0.547602
0.592175
0.588975
0.589113
0.601957
0.601016
0.609898
0.612329
0.607933
0.608803
0.607039
0.605268
0.615386
0.615424
0.617579
0.61821
0.607292
0.607896
0.612073
0.612094
0.589821
0.587865
0.463716
0.466736
0.465153
0.459588
0.446358
0.449177
0.468332
0.461398
0.459643
0.458807
0.489543
0.543206
0.541082
0.549664
0.550868
0.525873
0.528807
0.570108
0.569507
0.39999
0.403927
0.449505
0.448425
0.368981
0.368686
0.163337
0.163173
0.16284
0.16274
0.281788
0.286756
0.246084
0.241577
0.244214
0.248837
0.284455
0.288707
0.210732
0.2107
0.223858
0.219477
0.237246
0.237423
0.23269
0.228264
0.285913
0.290153
0.225956
0.226641
0.216597
0.217191
0.244748
0.249344
0.296423
0.301315
0.297856
0.302771
0.302726
0.308009
0.289292
0.283158
0.311298
0.312366
0.304523
0.304501
0.315029
0.309473
0.272194
0.266872
0.249808
0.249267
0.256345
0.261587
0.221233
0.216468
0.231087
0.236028
0.119731
0.11651
0.119215
0.116028
0.129532
0.126128
0.155434
0.155481
0.170626
0.170779
0.197962
0.198004
0.19079
0.186684
0.196368
0.195975
0.195037
0.195449
0.206941
0.207458
0.210652
0.210987
0.171068
0.170767
0.180006
0.179727
0.180723
0.180506
0.189461
0.189645
0.168481
0.168329
0.17692
0.177074
0.134579
0.137978
0.123836
0.120548
0.138011
0.134316
0.159936
0.16023
0.152015
0.14854
0.144768
0.14138
0.141927
0.145348
0.160209
0.16391
0.160796
0.160886
0.122726
0.119402
0.135131
0.138521
0.129799
0.133295
0.137521
0.141267
0.12637
0.126646
0.071265
0.0688765
0.0995833
0.0967276
0.108376
0.108208
0.105479
0.105615
0.111692
0.111813
0.0502821
0.04847
0.0277861
0.026629
0.0144252
0.0143399
0.02097
0.0219332
0.0220895
0.0220268
0.0213042
0.0222402
0.0215967
0.0225491
0.0217611
0.0227432
0.0199287
0.0207934
0.0183328
0.0175949
0.0136717
0.0135323
0.0140092
0.0144406
0.0161191
0.0168427
0.0143366
0.0148542
0.0132277
0.0130827
0.0131815
0.0130345
0.0986846
0.0986413
0.0903914
0.0931369
0.0811112
0.083715
0.0569858
0.056922
0.0700884
0.0701455
0.0739947
0.076258
0.0538825
0.0539101
0.0558706
0.0579566
0.0461558
0.0479992
0.0499133
0.0499215
0.0408085
0.0408703
0.033368
0.0335581
0.0273923
0.0273799
0.0190647
0.0199403
0.0213832
0.0213895
0.0142174
0.0142034
0.0129884
0.441324
0.436368
0.483353
0.476553
0.607501
0.604547
0.548907
0.549679
0.579875
0.5751
0.564263
0.562142
0.587541
0.589093
0.592095
0.591065
0.580567
0.583774
0.603407
0.606815
0.449858
0.446586
0.478463
0.481818
0.540717
0.544582
0.563948
0.558819
0.594897
0.598451
0.613388
0.613281
0.61316
0.614223
0.620737
0.622482
0.61186
0.609963
0.621291
0.62012
0.602745
0.601877
0.526861
0.522014
0.523654
0.540987
0.529111
0.535453
0.555171
0.561568
0.575423
0.579188
0.582338
0.585627
0.588537
0.582783
0.538819
0.541297
0.534478
0.58378
0.583583
0.551801
0.553752
0.395032
0.399098
0.400921
0.404735
0.443443
0.438169
0.409959
0.419645
0.373803
0.374446
0.302545
0.307062
0.351164
0.349264
0.0691009
0.0716566
0.0726612
0.0753903
0.0456796
0.0475279
0.0439996
0.0422462
0.0220464
0.0228046
0.0201618
0.0202701
0.0236733
0.022772
0.0670282
0.0693294
0.0917568
0.0915479
0.110589
0.110168
0.0865977
0.0869637
0.0521364
0.0538704
0.0731619
0.0758092
0.0761189
0.075766
0.079183
0.079551
0.055389
0.0551094
0.062647
0.06296
0.0571645
0.0574679
0.0401905
0.0404141
0.0253185
0.0254486
0.0174159
0.0178536
0.0349049
0.0347248
0.032383
0.032563
0.0298989
0.0300433
0.0275474
0.0199123
0.0191524
0.0148564
0.0146979
0.480896
0.475922
0.301455
0.302595
0.380393
0.38556
0.350637
0.356324
0.305432
0.300684
0.372524
0.375235
0.363302
0.365878
0.337409
0.33536
0.338016
0.339322
0.339447
0.339631
0.35136
0.350819
0.419995
0.414321
0.422277
0.42544
0.406886
0.402488
0.391032
0.394611
0.393436
0.389522
0.367869
0.364093
0.361368
0.357947
0.374265
0.37115
0.379693
0.376735
0.401977
0.404868
0.396548
0.39361
0.38892
0.391686
0.451228
0.45778
0.470618
0.590054
0.591819
0.47294
0.469145
0.553655
0.550065
0.582949
0.585963
0.606017
0.524428
0.531344
0.542553
0.562237
0.566207
0.575915
0.462218
0.469383
0.483162
0.489676
0.507158
0.4987
0.56494
0.567737
0.595614
0.592476
0.597117
0.603519
0.607667
0.606928
0.60444
0.602812
0.610368
0.608541
0.614578
0.615142
0.618196
0.618207
0.609912
0.609305
0.476273
0.479408
0.463098
0.466516
0.46351
0.46551
0.538343
0.536247
0.407621
0.403492
0.495358
0.500344
0.415601
0.421811
0.324676
0.329856
0.326711
0.326336
0.144745
0.144514
0.158677
0.158587
0.189323
0.185354
0.21378
0.209309
0.291738
0.230455
0.230708
0.219453
0.219397
0.210857
0.20656
0.287123
0.29154
0.280282
0.28108
0.288195
0.287855
0.206448
0.206412
0.215053
0.215026
0.241696
0.246166
0.256403
0.251901
0.289589
0.294129
0.230718
0.231452
0.220608
0.214258
0.209824
0.250174
0.24553
0.294988
0.299854
0.283493
0.288246
0.293066
0.292122
0.301754
0.306844
0.289197
0.28286
0.308744
0.314196
0.293785
0.299128
0.309956
0.31554
0.219757
0.219321
0.23903
0.244118
0.240309
0.245428
0.240793
0.245892
0.25637
0.261585
0.246062
0.24105
0.230782
0.235756
0.226209
0.133234
0.136875
0.119347
0.11615
0.119266
0.116074
0.145316
0.145961
0.143229
0.151738
0.151748
0.166747
0.166881
0.202589
0.202427
0.174883
0.175141
0.189729
0.189687
0.203715
0.204099
0.192527
0.188324
0.202012
0.20154
0.194192
0.193767
0.202976
0.202493
0.207487
0.207609
0.16718
0.16689
0.184203
0.183912
0.184952
0.184725
0.189805
0.168154
0.172104
0.172653
0.176752
0.121419
0.118163
0.123988
0.120706
0.130978
0.127591
0.147945
0.144782
0.156494
0.156182
0.153701
0.157259
0.148324
0.151776
0.148791
0.152274
0.156822
0.156614
0.149918
0.147652
0.150485
0.129495
0.12609
0.1185
0.121782
0.132012
0.131761
0.13688
0.140589
0.123255
0.119917
0.106568
0.106592
0.100042
0.097239
0.107807
0.110869
0.10259
0.100673
0.103053
0.105262
0.114605
0.11471
0.0825374
0.079913
0.0736944
0.0762569
0.050785
0.0526623
0.0461828
0.0463011
0.0284022
0.0272548
0.0169278
0.0174529
0.0173677
0.0229028
0.0239463
0.0229756
0.0240154
0.0211346
0.021067
0.0223202
0.0213903
0.0237975
0.024944
0.0217111
0.0226906
0.0198887
0.0207462
0.0142146
0.0146382
0.0138228
0.0138709
0.0160322
0.0167348
0.0160944
0.016809
0.015484
0.0155017
0.0133408
0.0131994
0.0132533
0.0131092
0.0132038
0.0130578
0.113486
0.113498
0.0932064
0.090457
0.106964
0.106978
0.0590648
0.0591342
0.074993
0.0750388
0.0701593
0.0666037
0.0643512
0.0518571
0.0518591
0.0578755
0.0558121
0.0480189
0.0461866
0.0425209
0.0441209
0.0362023
0.0363091
0.0316746
0.0315288
0.0273545
0.0273258
0.0195058
0.019483
0.0130284
0.0130393
0.0234301
0.0234337
0.0148094
0.0147932
0.339458
0.344049
0.559455
0.562546
0.557763
0.498746
0.491136
0.601436
0.604602
0.587858
0.584051
0.58576
0.590533
0.571159
0.575234
0.564692
0.565424
0.563439
0.561607
0.568279
0.59378
0.349565
0.343528
0.468506
0.467895
0.492496
0.497015
0.489132
0.490531
0.576285
0.572056
0.553335
0.548401
0.552351
0.555875
0.567931
0.562819
0.598437
0.594861
0.591151
0.610878
0.610695
0.622118
0.622139
0.614983
0.617093
0.618952
0.6075
0.605806
0.604776
0.61118
0.608702
0.615485
0.616832
0.613986
0.616682
0.487841
0.487481
0.520563
0.514227
0.530443
0.5286
0.533443
0.540236
0.536724
0.551105
0.543086
0.56708
0.571523
0.563625
0.58124
0.535388
0.526852
0.46741
0.473347
0.589398
0.573057
0.580218
0.345565
0.343493
0.393187
0.39721
0.407994
0.410461
0.404909
0.439738
0.441789
0.39267
0.389312
0.400432
0.124713
0.121368
0.307629
0.303111
0.342317
0.344076
0.166131
0.171119
0.0997535
0.0995962
0.0781948
0.0781591
0.0494711
0.0475347
0.0477572
0.0459002
0.0370655
0.0386298
0.0329539
0.0315997
0.0200892
0.0198699
0.0242441
0.0252666
0.0226482
0.0235461
0.0486562
0.046875
0.0625899
0.0604522
0.08828
0.0856594
0.0919202
0.102082
0.101775
0.0938765
0.0942277
0.0964681
0.0847954
0.0851685
0.0697761
0.0695064
0.0705873
0.073483
0.0731364
0.0584312
0.0581301
0.0547443
0.0544503
0.0469019
0.0466491
0.0300392
0.0302052
0.0182866
0.0184236
0.02145
0.0222769
0.0180851
0.018232
0.016566
0.0163957
0.0439579
0.0441788
0.0309352
0.0321977
0.0286045
0.0297354
0.0155847
0.0154278
0.0160959
0.0166466
0.458043
0.452821
0.467928
0.473182
0.32474
0.324552
0.307478
0.306313
0.388339
0.393411
0.390715
0.395858
0.316251
0.31086
0.306827
0.302009
0.377089
0.379882
0.367925
0.370564
0.344585
0.346745
0.336396
0.338093
0.328354
0.327668
0.335663
0.335952
0.346917
0.346969
0.354109
0.354071
0.489069
0.494023
0.472875
0.467952
0.397935
0.393076
0.440768
0.436654
0.399161
0.403438
0.388193
0.391659
0.386534
0.390332
0.382183
0.37871
0.371377
0.367938
0.362085
0.358611
0.381303
0.378269
0.373717
0.370634
0.413603
0.410804
0.401838
0.398706
0.391621
0.394481
0.466252
0.467253
0.46529
0.462977
0.472965
0.470091
0.468139
0.464583
0.520313
0.517009
0.553205
0.556831
0.597705
0.59724
0.59646
0.603566
0.60546
0.535745
0.528105
0.546923
0.545146
0.559258
0.563034
0.478519
0.479549
0.477344
0.474939
0.503443
0.496432
0.500212
0.594085
0.59886
0.611597
0.61253
0.609441
0.609922
0.606572
0.616697
0.616122
0.469679
0.472568
0.4116
0.407223
0.491435
0.496287
0.414114
0.420251
0.30924
0.314348
0.362616
0.362875
0.167204
0.167034
0.157363
0.153777
0.147863
0.147703
0.158792
0.185541
0.185438
0.189236
0.189162
0.21413
0.209641
0.282949
0.27754
0.299912
0.304972
0.22385
0.223789
0.215191
0.211909
0.207569
0.267412
0.272064
0.276253
0.273829
0.277444
0.283484
0.283858
0.210811
0.206529
0.215428
0.215253
0.215129
0.259777
0.259828
0.260898
0.27428
0.278693
0.247876
0.24862
0.225267
0.229976
0.218737
0.237042
0.232413
0.261601
0.256823
0.291592
0.290179
0.291156
0.286705
0.294427
0.293019
0.29245
0.288616
0.292489
0.271976
0.266531
0.298936
0.294407
0.297366
0.307838
0.313358
0.299093
0.293699
0.230264
0.230551
0.244638
0.239532
0.245697
0.240585
0.25626
0.261526
0.251202
0.241063
0.2461
0.226064
0.225874
0.145338
0.148656
0.130294
0.126866
0.125982
0.122698
0.122425
0.125657
0.129383
0.126013
0.142033
0.138747
0.148042
0.148022
0.155438
0.15181
0.190841
0.191084
0.19403
0.194177
0.198087
0.202303
0.162967
0.162862
0.177707
0.177665
0.202412
0.202584
0.202801
0.203063
0.178113
0.178451
0.19721
0.197652
0.192137
0.191766
0.204516
0.204961
0.19945
0.199884
0.189895
0.189494
0.205646