/*--------------------------------*- C++ -*----------------------------------*\
  =========                 |
  \\      /  F ield         | OpenFOAM: The Open Source CFD Toolbox
   \\    /   O peration     | Website:  https://openfoam.org
    \\  /    A nd           | Version:  7
     \\/     M anipulation  |
\*---------------------------------------------------------------------------*/
FoamFile
{
    version     2.0;
    format      ascii;
    class       volScalarField;
    location    "1260";
    object      T;
}
// * * * * * * * * * * * * * * * * * * * * * * * * * * * * * * * * * * * * * //

dimensions      [0 0 0 1 0 0 0];

internalField   nonuniform List<scalar> 
238806
(
0.999041
1.00575
0.969381
1.32521
1.17644
1.00725
0.997953
0.993726
0.993642
0.972615
0.994036
1.18466
1.00223
0.999857
1.23826
1.21931
0.99269
0.985778
0.991977
1.00441
0.993948
0.991762
1.14958
1.0113
1.18048
0.966095
0.978046
1.00548
1.07849
1.18595
1.00334
1.00349
0.995426
1.00211
1.00265
1.00265
0.993642
0.993708
0.997987
1.02909
1.02355
1.27276
1.001
1.00097
1.00309
0.991184
0.986067
0.978664
1.0012
0.993337
1.00248
1.00371
1.002
0.999174
1.01139
1.01433
0.966779
0.947566
0.986213
0.953746
0.968498
1.01085
0.980967
0.992993
0.99458
1.00357
1.0023
0.995221
1.00201
1.00158
1.00014
1.00006
1.00121
0.990866
0.997623
1.00571
0.995804
1.00456
1.00463
0.994571
0.996284
0.998939
0.995512
0.996269
0.990444
0.994309
0.995199
1.00615
1.03701
1.01141
1.00608
1.01333
1.00883
0.997332
0.99489
1.00468
1.00491
0.987299
0.97485
1.28607
0.990974
0.995053
0.992399
1.00237
1.00596
0.989349
0.988365
0.988346
0.99151
1.00223
0.999458
0.990598
0.996937
1.00403
1.0024
1.0024
1.00261
1.02579
1.0319
1.02934
1.05718
1.14466
0.989957
0.995016
1.00757
0.997906
1.14113
1.19806
1.0032
1.11186
1.01999
0.961176
0.980399
1.29434
0.963281
0.984077
0.991902
0.991777
0.961654
1.1617
1.09347
1.21549
0.999175
0.997546
0.997988
0.993638
0.992749
0.993083
0.995987
0.994149
0.991445
0.996741
0.9923
0.991936
0.995706
0.988803
0.988178
0.997197
1.00096
0.994522
0.99249
1.00555
0.998132
1.00034
0.997871
1.00096
1.00094
1.00298
1.001
0.988541
0.988721
0.997259
0.994408
1.07586
1.05905
1.11095
0.990036
0.996182
1.00224
0.996401
1.1375
1.19759
1.41031
0.977986
0.961225
0.984225
0.937721
1.11815
0.997127
0.998163
1.0027
1.00277
0.987116
1.03594
0.97491
0.963047
0.977269
1.17244
1.33782
1.07816
1.21309
0.995437
0.990178
0.996899
0.997867
0.995612
0.998374
0.990095
0.989207
0.991361
0.99487
0.981845
0.990115
0.997309
0.999853
1.00068
1.00015
0.980175
0.989348
0.994116
0.989193
0.995709
0.992468
0.989915
1.00462
0.9977
1.0002
1.00276
1.00273
1.00394
1.00394
0.995799
0.995818
1.00471
1.00471
0.994911
0.994903
0.990274
0.990232
1.00049
1.03337
1.08167
1.03984
1.00284
1.00241
0.99086
0.999609
0.995044
1.00081
0.995953
0.995747
0.991999
0.99323
0.998488
0.99349
0.996293
1.01877
1.01487
1.02562
0.995147
0.9974
1.00217
1.00279
1.00514
1.00417
0.983693
0.981771
1.00594
1.00261
0.983
0.983594
0.991261
1.07009
0.989511
1.24829
1.10362
0.990129
0.995046
0.992546
0.993669
0.992703
0.994391
0.990252
0.988169
1.00259
1.00287
1.00178
0.999085
0.997523
0.999632
0.979042
0.9862
0.995541
0.998655
1.00063
0.99873
1.00032
0.995713
0.993368
0.984607
0.994211
0.999063
1.00578
1.00437
0.989017
0.988333
1.00451
1.00263
1.00558
0.993046
1.00144
1.00282
1.00103
1.00278
0.996134
0.996812
0.993424
0.993362
1.00398
1.00397
1.00359
1.00362
0.996181
0.994492
1.00412
1.00392
0.994678
0.994685
1.02807
0.997074
0.996532
1.13366
1.10948
0.996891
0.996883
0.995038
0.99503
0.972534
0.972004
1.0394
0.977199
1.00765
0.998185
0.995528
1.00151
0.996666
0.996472
1.21015
1.23264
1.05352
1.26143
1.09531
1.09278
0.971043
1.06985
1.00582
1.00455
0.996132
1.00096
1.00098
1.00487
1.00448
0.99474
0.998916
1.00088
0.98825
1.13002
1.06294
1.16295
1.01637
1.01506
1.02088
1.00692
1.40513
1.11756
1.06413
1.09323
0.996393
1.00362
1.01824
0.997298
1.00365
1.00139
0.997648
0.991627
0.997385
0.990934
0.987502
0.987398
0.987739
0.988924
1.00591
1.00199
1.00083
0.99658
1.00291
1.0026
0.995491
0.991487
0.995948
0.99505
0.98269
0.978658
0.990414
0.992361
0.99381
0.997132
1.00027
1.00025
0.993175
0.986163
0.978297
0.979707
0.991784
0.996567
1.00418
1.00341
0.990467
0.988544
1.0025
1.00431
0.9973
0.995826
1.00447
1.00451
1.00111
1.0028
0.995577
0.994167
0.994165
1.004
1.00398
1.00318
1.00324
1.00469
1.00466
0.996375
0.996346
0.990047
0.990157
1.00392
1.00392
0.995394
0.99428
1.00362
1.00363
1.01187
1.01452
1.00842
0.99327
0.995753
0.899307
1.12332
1.08296
1.1644
1.01138
1.01431
0.991718
0.991708
0.966897
0.967395
1.11812
1.08498
1.1887
1.11961
0.960485
1.04444
0.994827
0.997372
1.00627
0.997212
0.996549
0.993249
0.984628
0.996937
1.02042
0.978442
1.15334
1.26482
0.938979
1.17545
0.980845
0.996786
0.993111
0.993275
0.991369
0.993762
0.993776
1.00529
1.00391
1.00117
1.00165
1.00441
1.00467
1.00695
1.00187
0.99345
0.988778
1.19602
0.987402
0.982598
1.00473
1.09422
1.25281
1.12253
1.22361
1.01918
1.04355
0.99927
1.00087
1.00087
1.01777
0.990464
0.99568
0.990784
0.990486
0.991928
0.995484
0.993223
0.993013
0.987575
0.988932
0.989923
0.990183
1.00273
1.00233
1.0026
1.00292
0.993151
0.992613
1.00262
1.00286
0.999536
1.00192
0.99294
0.997361
0.980131
0.978472
1.12658
1.11684
0.988596
0.990291
0.988293
0.98884
0.992053
0.989401
0.997743
0.993848
0.99905
1.00056
0.99736
0.991404
0.981976
0.978291
0.98862
0.988275
0.990002
0.994059
1.00354
1.00497
0.996666
0.999846
0.991654
0.989164
0.990069
0.986772
1.00484
1.00313
1.00197
1.0026
0.99243
0.995203
0.994388
0.995125
1.00266
1.00268
0.997611
0.998375
0.99185
0.992229
1.00118
0.999944
1.00417
1.00412
1.00286
1.00087
1.00388
1.00387
0.993886
0.993872
0.991278
0.99584
1.0043
1.00406
1.00411
1.00411
0.995143
0.995135
0.996526
0.996607
1.0023
1.00431
1.00198
0.999301
1.03046
1.04341
1.02805
1.08011
0.999825
0.995882
0.997762
0.994177
1.00927
0.993334
1.11254
1.07134
1.00361
1.0079
1.00003
0.999364
1.00459
1.00693
1.00004
0.9995
1.10243
1.10325
1.11264
1.09809
1.10436
1.09484
1.03079
0.99209
0.989908
0.991421
0.994638
0.994885
0.997343
0.996657
1.00645
0.99753
0.990255
0.989751
0.989512
0.993782
1.18871
1.194
1.01127
1.00661
0.994379
0.979461
0.9822
0.997699
1.21396
0.996003
0.99147
1.03548
1.03879
0.995688
0.992411
0.991695
0.992029
1.00535
1.00378
0.996684
0.997239
1.00503
1.00431
0.989589
0.986416
1.01077
1.01365
1.0219
1.0931
0.984495
1.27457
0.980077
0.990757
1.00937
0.891602
1.093
1.01111
1.0052
0.989033
0.998667
1.27864
1.23641
0.994043
0.994153
0.996797
1.01477
1.00154
1.00359
0.99661
0.987833
0.99551
0.986876
0.998565
0.990612
0.988294
0.991702
0.992322
1.00198
1.00222
1.00172
1.00043
0.997438
1.00122
0.994408
1.00307
1.00013
1.00205
1.00262
1.00292
0.998761
0.99728
0.996202
0.992502
0.979351
0.981689
1.03056
1.06333
0.983139
0.991277
0.991855
0.988877
0.989136
0.991034
0.988521
0.988445
0.988761
0.990702
0.999514
0.996034
0.999888
0.995874
0.987923
0.981392
0.989654
0.988057
1.00411
1.00422
0.995072
0.993113
0.995178
0.994184
0.987674
0.988907
1.00531
0.999952
1.00266
1.00496
1.00017
0.994746
0.991657
1.00335
1.00258
1.00271
1.00445
0.999539
0.998515
1.00159
1.0011
0.988967
0.988583
1.04212
1.04988
1.05828
1.05787
0.996977
0.999063
1.00289
1.00295
1.00371
1.00367
1.00481
1.00482
0.996755
0.996752
0.995344
0.998807
1.00474
1.00443
0.988377
0.988383
0.993589
0.993666
1.00096
1.00098
1.00391
1.00392
0.996205
0.996261
0.993976
0.993972
0.995164
0.995199
1.03032
1.03029
0.994866
0.99503
1.0044
1.00236
1.021
1.0186
1.01074
1.01005
1.02572
0.993977
0.972891
1.04648
1.00946
1.00958
1.04083
1.08472
1.00033
0.996063
0.997034
0.995169
0.996311
0.99805
1.01828
1.0063
1.00005
1.01901
1.00389
1.00391
0.994416
0.994402
1.00359
1.00792
1.0115
1.01446
0.988449
0.986371
0.996568
0.996525
0.991892
0.99178
0.99427
0.993892
0.999002
0.998528
0.969613
0.96905
1.05845
1.01079
1.03735
1.00446
0.996771
1.00978
1.01443
1.03963
0.940219
1.00744
1.00792
0.998627
0.992528
0.994832
0.996358
0.997801
0.994044
0.997023
1.00553
0.989379
0.993513
0.996285
0.99535
0.993756
1.07239
0.998657
0.995656
0.978029
0.992363
1.00843
1.107
0.992284
0.996481
0.935136
1.10808
1.00097
0.99853
0.993843
0.994369
1.00523
1.00403
0.997766
0.99831
0.992371
0.993861
0.997144
0.993681
0.981128
0.98222
1.04214
0.997577
1.00282
1.19392
1.31708
1.0836
0.992938
0.998635
0.982109
0.983187
1.0651
1.14196
0.968419
0.959598
1.03273
1.017
1.00963
1.013
0.990224
0.994237
1.00042
1.03235
0.994663
0.992233
1.00561
1.00345
0.992109
0.989417
0.989148
1.00589
1.0059
1.00258
1.00258
0.9926
0.993771
1.00263
1.00284
0.991956
0.996222
0.981004
0.983646
0.977666
0.978487
1.04693
1.01421
0.982583
0.978417
1.00078
0.988231
0.989522
0.992924
0.991045
0.993722
0.990435
0.998354
1.00075
0.990429
0.997526
1.00342
1.00495
0.996314
0.994251
1.00074
0.997418
0.997749
0.995366
0.993561
0.995074
1.00505
1.00134
1.00103
1.00272
1.00548
1.0028
1.00263
1.0021
0.996594
0.994669
0.9996
1.00277
1.00444
1.00342
1.0035
1.0028
1.00303
1.00197
0.986042
1.04217
1.04982
0.996316
0.993806
0.998867
0.993505
0.993829
0.993905
1.00351
1.00346
1.00392
1.00391
1.00429
1.00422
1.00386
1.00356
0.995924
0.994618
0.995541
0.998895
1.00469
1.00437
0.98915
0.989095
0.995986
0.999068
0.993314
0.993208
0.992049
0.992136
0.997
0.997078
1.00289
1.00285
1.00427
1.00427
1.00411
1.0041
0.9938
0.991702
0.994263
0.99536
0.988259
0.988229
1.01871
1.01875
0.996004
0.996016
0.991466
0.991461
1.00008
1.00006
1.00461
1.00392
0.994669
0.994921
1.00794
1.00444
0.990381
1.01537
1.0212
1.04881
1.05526
1.03184
0.992192
1.01026
1.01049
0.995532
0.994126
0.996331
0.995291
0.993634
0.993431
0.996664
0.992066
1.10153
1.15641
1.03874
1.14594
0.989142
0.988758
1.0017
1.00392
0.995009
0.995143
1.0113
1.01419
1.00794
1.00359
1.01136
1.01429
0.992967
0.994243
0.994263
0.993318
0.994944
0.995258
0.996817
0.99682
0.992365
0.993296
0.996587
0.996852
0.991657
0.991741
1.00327
1.00375
0.983728
0.98544
1.10556
1.10511
0.968608
0.969365
1.03359
1.14889
0.988412
0.989124
1.00381
1.00124
0.994188
0.997898
0.99915
0.998255
1.00582
0.997032
1.00085
0.996613
0.986691
0.99649
1.06688
1.01461
1.06058
1.01642
0.968596
1.01335
1.00537
0.987623
0.99901
1.29353
1.04664
0.988525
1.03538
0.937043
1.11401
1.0424
1.00143
1.0011
0.99634
0.99065
0.996309
0.996904
0.999319
1.00247
1.00065
1.00006
0.999506
0.99831
1.02635
0.993542
0.994987
1.00866
0.983953
1.00745
0.990331
0.972432
1.02219
0.945127
0.995134
1.00743
1.00953
1.00395
1.0031
0.984921
0.989655
1.00811
1.06688
0.997062
0.981426
1.10411
1.00037
1.00331
0.993921
0.989712
1.00591
1.0012
1.00289
1.00584
1.00328
1.00221
0.994543
0.99622
0.989578
0.989514
0.998641
1.00166
1.00259
1.00278
1.00197
0.999819
0.989621
0.993103
0.97873
0.979684
0.977994
0.978951
1.10546
1.17546
0.977203
0.979716
1.00578
1.02964
0.988344
0.990231
0.989775
0.991736
0.999034
1.00099
1.00499
1.00404
1.00242
0.999737
0.99598
0.998847
0.992609
0.990058
1.00296
1.00477
1.0048
1.00232
1.00271
1.00135
1.00274
1.00531
1.00221
1.00274
0.993373
0.993636
1.00282
1.00133
1.00285
1.00447
1.00038
1.00323
0.986162
1.00222
0.995659
0.993918
0.993698
0.993597
0.99346
0.993691
0.988388
0.989064
0.998648
1.00114
1.0034
1.00283
1.00301
1.00307
1.00364
1.00313
1.00452
1.00456
1.00418
1.00416
0.995557
0.995627
0.994675
0.995967
0.992859
0.992765
1.00393
1.00372
1.00395
1.00376
1.00484
0.998977
0.999025
0.99905
0.99905
0.991806
0.99492
0.994843
0.990319
0.990393
0.993739
0.995301
1.00404
1.00386
1.00388
1.00389
0.996402
0.996463
1.00301
1.00301
1.00441
1.0044
0.998202
0.998267
0.992545
0.99433
1.00384
1.00384
0.995618
0.995375
0.988219
0.995143
1.01901
1.01892
1.01386
1.01382
0.992779
0.992773
0.991822
0.991853
0.994714
0.995065
1.00203
0.999246
1.00385
1.00461
0.999266
1.00194
0.995575
0.994758
1.02448
1.03151
0.991467
0.98133
1.04051
1.01586
0.965469
0.989721
1.07477
1.01489
1.03204
0.978601
1.05214
0.996415
1.00329
0.989879
0.989073
1.01088
1.02662
0.987114
0.994724
0.995828
0.99793
0.999872
1.27262
1.02422
1.0584
1.02472
1.06969
1.28941
1.19924
0.985865
0.980524
1.00166
1.0016
0.99823
0.992381
0.986219
0.985996
1.00314
1.00369
0.992383
0.993324
1.00794
1.00359
0.992891
0.994389
0.993294
0.994252
0.999348
0.998892
0.995066
0.995227
0.996853
0.996867
1.07229
1.0725
1.06242
1.07572
1.00466
0.995211
0.991885
0.992092
0.995991
0.995624
0.993493
0.994119
0.996359
0.997842
1.10421
1.10489
0.974966
0.976689
0.988327
0.988812
1.02079
1.0054
0.998185
0.998199
0.996946
0.998681
0.994194
0.997384
1.00607
0.997076
1.01233
0.996632
0.993603
0.996149
0.96403
0.977992
0.983468
1.00029
1.00482
1.01908
1.00444
1.00559
1.01004
0.974274
0.982637
1.0437
1.04261
0.997347
1.00503
1.00023
1.00314
1.00208
0.99882
0.997507
0.999613
0.999358
0.993124
0.995503
0.9978
1.00833
1.03588
0.988478
1.01204
1.00517
1.02428
1.02083
1.01347
0.988505
1.0117
1.06029
1.16475
1.18759
1.04682
1.08139
1.00222
0.999688
0.99693
0.984756
0.991275
0.988215
0.967417
0.990634
1.0258
1.00009
1.20344
0.985857
1.00336
0.994003
1.00108
1.00356
1.0059
1.00672
1.00128
1.00199
1.00597
1.00292
0.998581
1.00243
1.00585
0.992424
1.00347
0.990596
0.992415
0.991775
0.993557
1.00144
0.998035
0.99466
0.997407
0.98661
0.98237
0.982278
0.985844
1.00485
0.985645
1.10109
1.06036
1.14416
1.17123
1.00948
1.08781
1.05658
0.993696
0.988246
0.989136
1.00384
1.005
0.999071
1.00232
0.995685
0.993708
0.994934
0.996725
0.993311
0.990923
1.0028
1.00466
1.00266
1.00482
1.00274
1.00515
0.993643
0.994471
1.00281
1.00122
1.00321
1.00263
0.995069
0.996158
0.99658
0.996084
1.02737
1.03008
1.04546
1.04234
1.01232
1.00909
0.993234
0.991463
0.995471
0.995415
0.996716
0.995393
1.00227
1.00242
1.00386
1.00383
1.00428
1.00425
1.0036
1.00356
1.0039
1.00346
1.00358
1.00447
1.00329
1.00333
1.0035
1.00353
1.04473
1.04476
0.99576
0.995779
0.996371
0.995883
1.04559
1.04725
0.988534
0.988627
0.993046
0.99314
0.999469
0.997432
1.00395
1.00375
1.00398
1.0038
0.989114
0.98921
0.995774
0.991194
0.988384
0.988999
0.991857
0.991735
0.995225
0.995149
1.00399
1.00382
1.00407
1.00435
0.998597
0.99854
1.00427
1.00299
1.0039
1.00391
1.00442
1.00442
0.996616
0.996615
0.989616
0.989529
0.994147
0.992286
0.99066
1.00058
1.00057
0.995361
0.995355
0.992847
0.99285
0.998198
0.999337
1.0186
1.01823
1.01901
1.01886
1.0306
1.03071
0.99664
1.01404
0.994036
0.994043
0.993967
0.994126
1.0014
1.00141
1.00149
0.998661
1.004
1.0046
0.994924
0.994916
0.999132
1.0018
1.00389
1.00461
1.0045
1.00312
0.994881
0.995645
1.02286
1.02033
1.02943
1.03642
1.02908
1.01887
0.993876
1.00558
1.00486
1.03777
1.00693
1.06488
1.02463
1.00046
0.995983
0.995574
0.984662
0.987179
0.990213
0.982779
0.992881
0.989797
1.00134
1.00561
0.995905
0.994232
0.993965
0.994305
0.999538
1.00704
1.00145
1.04877
1.02079
1.03795
1.16606
1.02605
1.00419
1.00746
1.11904
1.03659
0.984018
0.982375
0.995946
0.995438
1.00209
1.00393
0.993262
0.993214
0.984556
0.984388
1.00369
1.00369
1.01166
1.02998
0.993287
0.992368
1.01134
1.01427
1.01144
1.01439
0.99228
0.992972
0.99294
0.992794
0.994209
0.993224
1.00216
1.00215
0.99547
0.994648
0.995295
0.995362
0.996089
0.996019
0.99904
0.999054
1.07536
1.071
1.07171
0.995217
1.00456
0.996547
0.996499
0.996263
0.995681
0.993571
0.993267
1.00693
1.00698
1.09836
1.09946
1.00377
1.00511
0.971564
0.972472
1.03414
1.03418
1.20998
1.22691
0.990728
0.992336
1.01284
1.01228
0.994484
0.997112
1.00244
1.00348
0.994542
0.996895
1.00678
0.997999
0.993419
0.993104
1.18816
1.18128
0.976905
1.01443
0.992454
0.996288
1.00283
0.999794
1.00302
0.992446
0.991461
1.01033
0.997747
1.01354
1.15856
1.18965
0.99479
0.982584
0.984814
1.0158
1.1319
1.09602
1.21209
1.18251
1.17354
1.00284
0.999333
0.982547
0.980489
0.980157
0.981417
0.994877
1.0114
1.00706
1.11706
1.00413
0.984545
0.987232
0.994634
0.997275
1.00682
1.00076
1.00603
1.00072
0.99637
1.00228
1.00597
0.999335
1.0028
0.994425
1.00276
1.00307
1.00565
0.990713
0.990418
0.989662
0.994266
1.00042
1.00036
0.999177
0.995927
0.991411
0.978264
0.979218
0.992833
1.00553
1.18459
1.17734
1.03905
0.979425
0.979895
1.00518
1.00304
1.0046
1.00366
1.005
0.996955
0.994761
0.994547
0.995785
1.00266
1.00472
1.00027
1.00123
0.999655
0.999668
1.00252
1.00212
0.99593
0.995961
0.999152
0.999146
0.993845
0.993804
1.0565
1.03488
1.01774
1.02124
0.997905
0.997066
1.03943
0.991933
0.992492
0.991658
0.993423
0.989918
0.989835
0.994185
0.993972
0.992363
0.992418
1.00093
0.998426
1.00426
1.0047
1.00334
1.00328
1.00381
1.004
1.00421
1.00389
1.00387
1.00153
1.00167
1.00471
1.00481
1.00457
1.00455
1.00384
1.00383
0.992376
0.992382
0.996323
0.996301
0.995887
0.995881
0.99675
0.99486
0.996078
0.991471
0.991627
0.995889
0.994258
0.991178
0.989594
1.00392
1.0037
1.00356
1.00454
1.00413
1.00412
1.00397
1.00379
1.00418
0.998667
0.998751
0.996022
0.996246
0.988954
0.98891
0.989705
0.989882
0.991954
0.990241
1.00426
1.00431
1.00402
1.00385
1.00428
1.00077
1.00072
0.998704
0.998751
1.00092
1.00409
1.00408
1.00485
1.00486
1.00441
0.993885
0.994906
0.992988
0.992864
0.988959
0.988423
0.990383
0.990541
0.99756
0.99757
1.00721
1.03141
0.993039
0.993358
0.993359
0.993928
0.994015
0.995255
0.995177
0.988215
0.988219
1.01797
0.993641
1.0312
1.03144
1.01417
1.01431
1.03049
1.01885
0.992838
0.992801
0.993567
0.993571
0.99605
0.996052
1.00167
1.00167
0.995089
0.995084
1.00359
1.00383
0.999861
1.00179
0.99813
0.997961
0.999318
1.0021
0.996825
0.995235
1.00285
1.00292
1.00381
1.00461
0.994678
0.994922
1.00054
0.99764
1.00112
1.00033
1.0112
0.995332
1.00271
0.995754
0.995957
1.01458
1.01535
1.00119
1.00204
1.00455
1.00857
1.0303
1.12601
1.00395
1.08122
0.955305
0.90755
1.00828
1.00845
1.002
0.994464
0.984242
0.984881
1.00934
1.00611
0.982603
0.983144
0.999833
0.985706
1.01195
1.10772
0.998945
1.00087
0.995542
0.9951
1.00864
1.00113
0.996639
1.01417
1.01399
0.990439
1.02148
1.02464
1.05194
0.998691
1.0309
1.01297
0.99902
1.005
0.997834
0.990478
0.988548
1.00386
1.00387
0.996702
0.999468
0.985756
0.980328
0.995003
0.996884
1.01692
1.0169
0.989965
0.989912
0.985284
0.985152
0.990923
0.990849
1.00313
1.00313
0.999588
1.0038
0.993254
0.992355
0.995288
0.994625
1.01133
1.01425
0.999296
0.996606
1.01149
1.01444
1.01221
1.01514
0.993219
0.993057
1.02939
1.02885
0.988409
0.986562
0.9884
0.986482
0.987004
0.987129
1.00341
1.00351
0.997033
0.996319
0.995111
0.995081
0.995422
0.995481
0.99721
0.997195
0.991833
0.991542
0.996014
0.999834
1.00696
1.00483
1.00259
1.00249
1.00392
1.00559
0.992219
0.992077
0.99637
0.996812
1.00349
1.00386
1.10054
1.10145
0.984551
0.98083
1.00379
1.00465
0.969904
0.970661
1.03365
1.03314
0.991889
0.991652
0.990041
0.988624
0.99895
1.0054
0.99974
0.995651
0.998853
1.00001
1.11126
0.9945
0.993994
1.00653
0.998549
1.00667
0.998119
1.00571
0.99562
0.988108
0.996276
1.01103
1.17974
1.00973
1.03778
1.22069
1.28609
1.00144
1.02906
1.17511
0.988351
0.992163
0.984184
0.994622
0.973937
0.97059
1.0207
0.980697
1.12408
1.02599
1.00063
0.992687
0.992153
0.997011
1.00495
1.00087
1.00596
0.996597
1.0025
1.0005
1.00263
1.00157
1.00585
1.00335
0.997909
0.991085
0.986854
0.999612
1.00044
0.988164
0.984781
0.980149
0.984097
1.16097
1.08265
0.984462
1.00444
1.00354
1.00327
1.0049
0.998209
1.00151
1.0027
1.00158
0.999626
0.999177
1.00373
1.00537
1.00375
1.00321
0.995058
0.99546
1.00349
1.00607
0.996341
0.996351
0.996144
0.996165
0.996387
0.996419
0.995549
0.995698
0.994575
0.994146
1.03152
1.02912
1.05847
1.02442
1.03666
1.03404
0.982037
0.982859
0.991756
0.993516
0.991561
0.993328
0.99537
0.995122
0.989433
0.989464
0.990758
0.990802
0.996713
0.996875
1.00474
1.0047
1.00284
1.00408
1.00395
1.00402
1.0027
1.00276
1.00402
1.00403
1.00334
1.0014
1.00407
1.00405
1.00422
1.00425
1.004
1.00398
1.01833
1.0191
0.995523
0.99553
0.996745
0.996736
0.996362
0.99587
0.996422
0.995936
0.996043
0.994795
0.984463
0.98408
0.99404
0.997942
0.994337
0.995984
0.989752
0.991368
1.00394
1.00469
0.999371
0.997338
1.00447
1.00341
1.00441
1.00472
1.0041
1.00394
1.00447
1.00477
1.00396
1.00378
0.991171
0.991295
0.996766
0.996892
0.99158
0.991862
0.999022
0.995879
0.995074
0.994997
0.99159
0.991435
0.996713
0.996778
1.00304
1.00312
1.004
1.00383
1.00422
1.00421
0.996585
0.996648
1.00487
1.00487
1.00439
1.00437
1.00486
1.00473
0.996335
0.996348
0.992984
0.992791
0.989702
0.993088
0.988721
0.988449
0.99243
0.994245
1.00295
1.00295
1.0026
1.00257
1.00434
1.00468
0.996506
0.996507
0.994236
0.995314
0.993701
0.993821
1.03282
1.03295
0.988232
0.988249
0.993566
0.993517
0.99376
0.993928
0.995481
0.995649
0.996689
0.996751
0.994049
0.994057
0.994934
0.99493
0.996392
0.996539
0.995265
0.995413
0.99605
0.995656
0.998886
0.99889
0.994718
0.994727
1.0016
0.998739
1.00434
1.00231
1.00075
1.00052
0.999365
1.00213
0.995194
0.995175
0.996814
0.996822
0.994683
0.994912
1.00188
0.999205
0.996209
0.995045
0.997673
1.00051
0.995645
0.995633
1.00106
0.993239
0.997729
0.992842
0.995869
0.995978
0.995179
1.05052
1.04266
0.99605
0.996788
1.057
1.07426
0.995536
0.978511
1.0086
1.01496
1.03641
1.05142
1.05091
1.01986
1.0307
1.005
1.04354
1.08374
0.994054
0.994644
0.985698
0.988697
0.995972
0.98647
0.986205
0.987544
1.01673
1.01713
1.0058
1.01975
0.990639
0.983394
0.994982
1.00051
0.979012
1.04317
0.987145
1.00122
1.00177
1.1104
0.999132
0.997652
0.992367
0.997818
0.99582
0.994111
0.994132
0.999954
0.992079
0.995413
1.00185
1.0043
1.06927
1.09476
1.09339
1.05123
1.21465
1.16105
1.29239
1.00171
1.00331
0.994616
0.996042
0.98771
0.987208
0.990028
0.985528
1.00283
1.00286
1.00179
1.00395
1.02653
1.03025
0.98965
0.985924
0.994973
0.994953
1.00258
1.00258
0.998034
0.998135
0.993451
0.993501
0.994322
0.994393
0.986188
0.984493
0.990768
0.990688
1.00176
1.00178
0.984799
0.98951
0.994998
0.99381
0.999458
1.00367
0.986925
0.986756
0.994165
0.994075
1.00791
1.0036
1.01131
1.01422
0.995245
0.994501
0.996612
0.999299
1.01146
1.01441
1.01175
1.01468
0.993
0.994485
1.00047
1.00107
0.996253
0.998366
0.988431
0.986571
0.9884
0.986539
0.991411
0.995924
0.995909
1.00271
1.00281
0.99495
0.995047
0.996229
0.995877
0.996304
0.996295
1.00432
1.00433
0.993475
0.993471
0.992046
0.992604
0.992212
0.992845
0.991942
0.99346
1.00686
1.00423
1.05105
1.08346
0.97884
0.96922
0.999774
0.999783
1.00659
1.00702
0.991868
0.991954
1.00198
1.00273
0.995151
0.99468
1.0059
1.00561
0.967791
0.967987
0.968024
0.967853
1.03207
1.03138
0.999729
0.997479
0.992631
0.994651
0.970202
0.97101
1.14754
1.17521
1.18151
0.990926
0.984971
0.995962
0.996303
0.997069
0.997005
1.00589
1.00617
1.00021
1.00325
0.993068
0.990729
0.991967
0.99164
1.01337
1.18488
1.21088
1.14072
1.12085
1.13039
1.16881
1.00105
0.993752
1.01794
1.01811
1.02948
1.00652
1.00263
0.996349
0.989007
0.992454
0.99266
0.9918
0.997762
1.00298
1.00087
1.00608
1.0027
0.999937
0.988083
0.983095
0.999995
0.998595
0.998998
1.03161
1.00426
1.00386
1.0004
1.00023
0.993879
0.993426
1.00481
1.00482
0.992683
0.992736
1.00313
1.00256
0.994709
0.994936
1.04436
1.04652
0.993366
0.993956
0.995732
0.995715
0.996358
1.00352
1.0043
0.995143
0.996175
0.993994
0.993967
0.994941
0.994922
0.995124
0.993853
0.996482
0.995329
0.994136
0.99426
0.995081
0.994033
1.05839
1.058
0.995012
0.994247
0.997597
0.997505
0.991853
0.993608
0.99
0.989934
0.990072
0.991657
0.991813
0.988553
0.988579
0.990734
0.990701
1.0004
0.997609
0.99525
0.995424
1.00421
1.0041
1.00491
1.00493
1.00408
1.00404
1.00378
1.00375
1.00263
1.00061
1.00113
1.00126
1.0048
1.00481
1.00444
1.00441
1.00394
1.00393
1.00342
1.00346
1.0045
1.00447
1.00401
1.01558
1.01523
1.00392
1.00342
0.992395
0.99241
0.996584
0.995728
0.996144
0.996359
0.995858
0.996402
0.995918
0.994648
0.993954
0.991721
0.998584
0.992935
0.994679
0.995569
0.999635
0.990663
0.990821
0.988585
0.988576
0.991084
0.989517
0.991273
0.989673
1.0039
1.00366
0.999277
0.99725
1.0045
1.00348
1.00439
1.00471
1.00373
1.00483
1.00483
1.00416
1.00414
0.992708
0.992633
0.99246
0.992607
0.988448
0.988434
0.988814
0.988711
0.995983
0.999053
0.989236
0.989245
0.993416
0.993509
0.996849
0.99692
1.00421
1.00298
1.00478
1.00476
1.0048
1.00425
1.00424
0.996274
0.996338
0.998653
0.996524
1.00487
1.00486
1.00473
1.00474
0.994783
0.993855
0.989657
0.98943
0.998344
0.998422
0.988511
0.988505
0.988547
0.990191
0.988419
0.989036
1.00398
1.00398
1.00065
1.00064
1.00459
1.00459
0.993474
0.995575
1.00397
1.00396
0.992667
0.991849
0.994125
0.996006
0.995998
0.996234
0.996252
0.994212
0.995262
0.992871
0.992917
0.988299
0.988511
0.993535
0.993534
1.01783
1.01783
0.988547
0.988508
0.993752
0.988588
0.996068
0.996066
0.994944
0.994963
0.99357
0.992787
0.993493
0.993639
0.995917
0.996075
0.995973
0.996121
0.996054
0.992691
1.00386
1.00386
0.994781
0.995171
1.0038
1.00368
1.00186
0.99987
1.00007
0.994989
0.994976
0.999373
1.00212
0.99494
0.994931
0.995238
0.995236
0.993288
0.993213
0.996529
0.995134
0.997749
1.00078
1.00309
1.0045
1.00243
0.999413
1.00016
1.00099
1.002
0.996147
0.997403
0.992666
1.05172
1.0505
0.988845
0.996773
0.999926
1.03735
1.06269
0.996352
0.992971
0.989563
1.00311
1.009
0.981061
1.01417
1.00007
0.89034
1.04197
1.02425
1.04508
1.05496
0.969208
0.9946
0.994285
1.01288
1.01526
0.994262
0.995213
1.00453
1.00732
0.998279
0.99753
0.990713
0.99187
0.984812
0.984566
1.00357
1.00465
1.00968
1.00972
1.01646
1.00565
1.01938
1.01318
1.00658
0.990091
0.990415
0.99163
1.00075
0.996632
1.011
1.00335
1.01001
1.00019
0.98684
0.975469
0.97996
1.17531
1.05885
0.995835
0.995178
0.990236
1.00028
0.999243
0.997537
0.9964
1.00082
1.02662
0.99449
0.995247
1.00437
1.0223
1.06178
1.09809
1.11585
1.12441
1.27725
0.981778
0.973153
0.980118
0.985857
1.03207
1.03494
0.980539
0.991501
0.985662
1.0027
1.0016
0.994071
0.989696
1.00279
1.00313
1.00313
1.05425
1.05326
0.986379
0.990255
0.99097
0.991055
0.9884
0.994208
1.00258
1.00209
1.00391
1.00391
0.99228
0.992185
0.995655
0.995647
0.993946
0.994036
0.987551
0.987441
1.00567
1.00572
0.996436
0.996523
0.994351
0.994355
1.00175
1.00173
1.00261
1.0026
0.990498
1.01114
1.02956
0.993605
0.994877
1.00796
1.01129
1.01417
1.03424
1.02948
0.99425
1.00791
1.00359
0.999291
0.996597
1.00802
1.00364
0.99296
0.992274
1.01203
1.01494
0.996605
0.999641
0.99219
0.992166
1.03032
1.01857
1.00097
1.00196
0.998579
0.99646
0.991528
0.991571
0.991456
0.9915
0.994148
0.994192
1.0023
1.0023
0.995039
0.995129
0.998326
0.99775
0.993961
0.99692
0.995898
0.996265
0.996127
0.996134
0.996268
0.996261
1.00378
1.00376
0.995007
0.994998
0.991994
0.992517
0.992161
0.99275
0.993884
0.992167
1.00006
0.99621
1.00434
0.990995
1.05698
1.07976
1.042
1.08956
1.03566
1.09395
1.00272
1.00202
0.996564
0.996622
0.995021
0.99512
0.99235
0.992085
0.991634
0.991616
1.00528
1.00578
0.9973
0.997848
1.00688
1.00668
1.0025
1.00304
0.977971
0.978417
0.973416
0.974308
1.03067
1.03041
0.999435
1.00205
1.00592
1.00654
0.981891
0.979935
0.96046
1.23739
1.18261
1.20207
0.990474
0.992204
0.994653
0.994969
0.997255
0.996311
0.995797
0.996439
0.986646
0.995948
0.998792
1.00147
1.00037
1.00591
1.00887
1.00452
0.998854
0.990011
0.997584
1.02005
1.26711
1.1655
1.23392
1.06805
1.09347
1.22531
0.968496
1.00596
0.989934
0.990581
1.0014
1.00361
0.99276
1.00296
0.997084
0.982851
0.979952
0.999176
0.99823
0.992138
0.991602
1.00331
1.00331
0.992483
0.992551
1.00329
1.00378
0.995076
0.99548
1.00432
1.00426
1.04
1.04695
0.997887
1.00109
0.985657
1.0426
1.04945
0.996093
0.996085
1.00005
1.00013
0.99803
0.997979
0.995218
0.996186
0.994026
0.996811
0.996812
0.996562
0.996598
0.99514
0.993935
0.994105
0.995489
0.996473
1.02467
1.02262
1.03698
1.0556
1.02685
1.00644
0.993346
0.995745
0.99754
0.997954
0.997227
0.999321
0.990085
0.99017
0.989803
0.989327
0.989437
0.988431
0.988415
0.989407
0.988532
0.993702
0.994014
0.992333
0.990728
0.996171
0.99576
0.994598
1.00481
1.00481
1.00513
1.00497
1.00382
1.00453
1.00467
1.00396
1.00396
1.00477
1.00479
1.00322
1.0031
1.00474
1.00476
1.00435
1.00432
1.00395
1.00381
1.0038
1.0042
1.00452
0.995431
0.995406
0.994159
0.993811
1.03578
1.03515
0.995515
0.995504
0.99637
0.996395
0.994102
0.994065
0.996379
0.995851
0.996745
0.996734
0.996527
0.996044
0.993999
0.994724
0.993922
0.993943
0.992573
1.0235
0.992464
0.994942
1.05224
1.04213
1.00445
0.982847
0.994033
0.995621
0.988623
0.988547
0.994264
0.998124
0.997545
0.993597
0.994414
0.996081
0.990993
0.989444
1.00228
1.00239
1.00389
1.00364
1.00435
1.00319
0.997732
0.999781
1.00174
1.00184
1.00485
1.00485
1.00475
1.00445
0.994634
0.994575
0.990823
0.99075
0.996998
0.998584
0.998833
0.99891
0.989197
0.988388
0.988598
0.988725
0.996037
0.999071
0.991894
0.989209
1.00293
1.00298
0.998941
0.998883
1.00119
1.00128
1.00479
1.00481
1.00424
1.00421
1.00477
1.00481
1.00293
1.00296
0.998481
0.998423
1.00471
1.00472
0.995617
0.995618
0.992022
0.99357
0.995476
0.997292
0.997295
0.998505
0.997092
0.991817
0.993888
0.989754
0.988882
0.988436
0.993319
0.993345
0.99153
0.991547
1.00064
1.00398
1.00398
1.00428
1.00398
0.987974
0.987979
1.00399
1.00398
1.00398
1.00398
0.999906
0.999933
1.00455
1.00422
0.996058
0.996154
0.995335
0.995328
0.996506
0.996504
0.993972
0.993965
0.993578
0.993858
1.01996
1.01997
1.03084
1.031
0.988458
0.988399
0.995457
0.995497
0.995534
0.99535
0.995355
0.99648
0.996481
0.993573
0.993575
0.992685
0.992839
0.995986
0.995993
0.995348
0.995346
1.03808
1.03899
1.00142
0.996051
0.995662
0.999715
0.99972
0.995106
0.995097
1.00085
1.00079
1.00368
1.00385
0.999864
1.00187
1.0046
1.00457
0.99502
0.995006
1.00206
0.999357
1.00405
1.0046
0.996774
0.996722
0.994684
0.994688
0.992824
0.992797
1.00298
0.997682
1.00227
0.999266
0.995082
0.996413
1.00114
0.99838
0.997701
1.00051
0.994854
0.994834
0.994834
0.994824
1.00036
1.00026
1.00129
0.998295
1.00263
0.999512
0.996153
1.002
0.993432
0.994725
1.00067
0.995595
0.996533
0.99859
0.994914
0.994563
0.993262
0.992919
1.04371
1.0458
0.995423
0.994412
0.994093
0.996552
1.00686
1.01066
1.01553
0.989671
0.990013
1.01408
0.995611
0.996058
0.995908
1.01306
1.01555
0.996521
0.996216
0.987454
0.985221
1.01141
1.01706
0.989557
0.989101
0.985498
0.996348
0.984245
0.985192
1.00882
1.00859
1.0054
1.00557
1.00971
1.00536
0.983488
0.989338
1.00557
1.01883
1.01088
1.00903
1.00552
0.982895
0.989814
0.99671
0.996943
0.990008
0.983859
1.00478
0.986584
0.999944
0.989114
1.00251
1.00054
1.03629
1.07427
1.06294
1.03178
0.994077
0.994424
0.996874
0.99695
0.993289
1.09661
1.0449
1.00259
0.993374
1.10038
1.04535