/*--------------------------------*- C++ -*----------------------------------*\
  =========                 |
  \\      /  F ield         | OpenFOAM: The Open Source CFD Toolbox
   \\    /   O peration     | Website:  https://openfoam.org
    \\  /    A nd           | Version:  7
     \\/     M anipulation  |
\*---------------------------------------------------------------------------*/
FoamFile
{
    version     2.0;
    format      ascii;
    class       volScalarField;
    location    "600";
    object      T;
}
// * * * * * * * * * * * * * * * * * * * * * * * * * * * * * * * * * * * * * //

dimensions      [0 0 0 1 0 0 0];

internalField   nonuniform List<scalar> 
238806
(
0.99087
0.991455
0.987464
0.989317
0.988406
0.990478
0.990484
0.991326
0.991199
0.988253
0.988238
0.990338
0.985208
0.985006
0.984212
0.984603
0.988132
0.987652
0.992058
0.992279
0.986312
0.985941
0.984611
0.984648
0.984668
0.988195
0.9878
0.988083
0.987711
0.987157
0.991963
0.991966
0.986398
0.986891
0.987724
0.988101
0.563479
0.562343
0.988176
0.988925
0.988488
0.987732
0.991497
0.991542
0.992093
0.992007
0.983894
0.984529
0.987383
0.987791
0.989689
0.989811
0.985674
0.98547
0.789063
0.78997
0.988527
0.988024
0.988498
0.988964
0.988469
0.989973
0.988651
0.988997
0.989239
0.991977
0.992004
0.991455
0.991459
0.990669
0.99045
0.986302
0.985775
0.987522
0.987094
0.98905
0.988816
0.987701
0.988077
0.91729
0.917498
0.988264
0.988676
0.990932
0.990991
0.989668
0.9895
0.987312
0.987312
0.987798
0.9875
0.989948
0.988787
0.991508
0.991732
0.988946
0.989191
0.988775
0.988482
0.988561
0.991961
0.991446
0.991343
0.991328
0.991337
0.982437
0.981924
0.986934
0.986488
0.986606
0.986078
0.988825
0.9892
0.989572
0.98947
0.985367
0.985833
0.552307
0.552637
0.551484
0.985039
0.984513
0.990825
0.990715
0.990638
0.990606
0.983167
0.983178
0.98672
0.987104
0.989184
0.986917
0.987216
0.987527
0.988396
0.989428
0.991369
0.991466
0.985098
0.985299
0.98487
0.985726
0.989081
0.991399
0.990043
0.991649
0.991569
0.991332
0.991374
0.990854
0.990737
0.99017
0.990029
0.982687
0.982095
0.985906
0.985453
0.985997
0.985466
0.985913
0.985542
0.988747
0.988539
0.98983
0.98973
0.987636
0.988014
0.928414
0.928231
0.564162
0.563027
0.987945
0.988327
0.970798
0.970623
0.970753
0.990871
0.990756
0.989286
0.989169
0.982742
0.982622
0.98704
0.987591
0.987503
0.987603
0.990591
0.990862
0.991395
0.991625
0.991503
0.991559
0.991095
0.991044
0.989094
0.988126
0.989069
0.987264
0.987334
0.988647
0.988215
0.992058
0.99201
0.99168
0.991928
0.991487
0.991319
0.990086
0.989845
0.990606
0.990723
0.976764
0.976984
0.981068
0.980434
0.983602
0.984212
0.985535
0.985952
0.98679
0.987232
0.988912
0.988607
0.989249
0.989652
0.989503
0.989595
0.987703
0.98808
0.95216
0.953532
0.868065
0.871232
0.872713
0.875832
0.732479
0.727021
0.991239
0.991449
0.98945
0.990714
0.982915
0.982263
0.965648
0.964949
0.990739
0.990654
0.989607
0.989715
0.989197
0.989002
0.987652
0.987593
0.985101
0.985424
0.988038
0.988522
0.990978
0.992188
0.991318
0.991856
0.991411
0.991452
0.988088
0.988117
0.990763
0.990839
0.988646
0.988801
0.986082
0.985571
0.989705
0.986829
0.989059
0.9911
0.989934
0.991977
0.992001
0.991773
0.991687
0.991491
0.991561
0.991053
0.990561
0.991074
0.991086
0.990719
0.990653
0.980533
0.980169
0.982613
0.982935
0.980651
0.980027
0.982236
0.981574
0.984898
0.984287
0.985514
0.984902
0.985662
0.985129
0.985267
0.98506
0.98801
0.987657
0.989011
0.988902
0.989354
0.989064
0.985484
0.985559
0.987238
0.987307
0.987131
0.986742
0.93195
0.933649
0.944861
0.946401
0.923432
0.921389
0.915316
0.915112
0.857563
0.857956
0.726845
0.732338
0.550561
0.987656
0.988082
0.984523
0.985078
0.803609
0.798943
0.980674
0.981194
0.970374
0.970063
0.990835
0.991133
0.990789
0.990688
0.989375
0.9895
0.988837
0.988901
0.985937
0.986476
0.985722
0.986128
0.990232
0.990429
0.988163
0.991955
0.991879
0.991038
0.990492
0.991442
0.991414
0.988655
0.988685
0.989873
0.990241
0.989461
0.990594
0.986606
0.987327
0.984581
0.990115
0.990077
0.988279
0.988783
0.989783
0.989267
0.990379
0.989286
0.991303
0.991217
0.992012
0.992129
0.991838
0.991849
0.991807
0.991703
0.991594
0.991226
0.988878
0.988942
0.989602
0.989819
0.991205
0.991168
0.991291
0.991219
0.990769
0.990759
0.990557
0.990441
0.98985
0.989651
0.97763
0.977391
0.983381
0.983828
0.980213
0.9796
0.981866
0.98121
0.983291
0.982613
0.98429
0.983628
0.98532
0.984785
0.985503
0.9857
0.987713
0.987352
0.989199
0.989305
0.988096
0.988132
0.986896
0.987307
0.986824
0.986894
0.987505
0.939996
0.941451
0.952111
0.953478
0.941702
0.940054
0.93635
0.938126
0.871231
0.868042
0.880956
0.883474
0.864383
0.861205
0.634883
0.635348
0.844983
0.848373
0.989739
0.990331
0.989637
0.98386
0.983625
0.983652
0.983545
0.983444
0.983963
0.793811
0.794703
0.973741
0.973149
0.971324
0.970973
0.970399
0.970349
0.980281
0.980288
0.990795
0.990961
0.990503
0.990746
0.989973
0.990005
0.989466
0.98807
0.987804
0.988193
0.986261
0.98467
0.985772
0.985404
0.988786
0.993481
0.99159
0.991323
0.991335
0.991225
0.99125
0.991497
0.991572
0.987455
0.987484
0.988583
0.98831
0.989157
0.988915
0.990918
0.990668
0.988321
0.988426
0.987685
0.987474
0.987275
0.985028
0.986139
0.986663
0.986
0.986258
0.987274
0.989278
0.991095
0.990948
0.992183
0.992751
0.991943
0.991992
0.991839
0.991836
0.991855
0.991813
0.991679
0.991723
0.989151
0.989103
0.990318
0.990081
0.99083
0.991026
0.990926
0.990937
0.991105
0.99091
0.990378
0.990381
0.990479
0.990544
0.989829
0.989969
0.97566
0.975972
0.97985
0.980684
0.984676
0.985129
0.982381
0.982899
0.981253
0.981832
0.982494
0.983092
0.981475
0.980831
0.982956
0.982278
0.983951
0.983291
0.985816
0.986268
0.984958
0.984425
0.98672
0.986831
0.986242
0.986529
0.98739
0.987024
0.988231
0.988523
0.988008
0.987896
0.989646
0.989685
0.988586
0.988514
0.988048
0.987863
0.98733
0.986918
0.986337
0.985911
0.914164
0.91206
0.933657
0.931962
0.94485
0.946396
0.926426
0.926243
0.921276
0.923329
0.908066
0.905788
0.876174
0.875851
0.882203
0.882325
0.860826
0.864025
0.617511
0.611854
0.561041
0.559879
0.794275
0.794612
0.720428
0.720642
0.988252
0.988118
0.992654
0.991319
0.982709
0.982349
0.987472
0.986986
0.987079
0.987547
0.984202
0.984714
0.81046
0.811264
0.605718
0.604531
0.96153
0.961301
0.967319
0.966667
0.967146
0.967651
0.970165
0.969803
0.970145
0.970661
0.990227
0.989782
0.990617
0.990902
0.990868
0.990883
0.990399
0.990549
0.990139
0.990162
0.98928
0.989434
0.988626
0.988788
0.982043
0.981898
0.987002
0.986763
0.986431
0.98615
0.985619
0.989323
0.989053
0.990964
0.990973
0.992815
0.991366
0.991465
0.99128
0.991441
0.991514
0.987112
0.987142
0.988977
0.988737
0.988381
0.988409
0.990486
0.990629
0.990954
0.991307
0.98713
0.987418
0.986205
0.988593
0.988308
0.988148
0.990067
0.988692
0.990956
0.989899
0.989535
0.988159
0.987611
0.985559
0.990049
0.991068
0.991177
0.992085
0.99197
0.991891
0.991901
0.991746
0.991268
0.989691
0.988997
0.989639
0.989657
0.989404
0.990707
0.990787
0.991038
0.990888
0.991249
0.991603
0.991126
0.991182
0.990356
0.991308
0.990068
0.990133
0.99058
0.990587
0.990296
0.990061
0.979494
0.979842
0.977781
0.977484
0.977355
0.977506
0.980381
0.980713
0.984046
0.984579
0.984262
0.984713
0.982822
0.983344
0.98138
0.980807
0.982872
0.983476
0.982605
0.981932
0.983636
0.982957
0.986158
0.986609
0.985936
0.986135
0.985496
0.985124
0.988312
0.988036
0.988293
0.987959
0.988431
0.988231
0.989109
0.989081
0.989107
0.988745
0.988677
0.988322
0.988782
0.986491
0.98647
0.98735
0.987733
0.986117
0.986546
0.980959
0.981449
0.914115
0.914063
0.928522
0.926703
0.929746
0.929973
0.94935
0.947895
0.940033
0.941689
0.936248
0.938034
0.871203
0.867989
0.897494
0.897329
0.900375
0.900553
0.885541
0.888047
0.88636
0.88889
0.871141
0.874029
0.870568
0.8675
0.757159
0.762077
0.629847
0.635859
0.600966
0.595746
0.562204
0.561057
0.559025
0.557822
0.789794
0.789598
0.552464
0.553952
0.552647
0.98741
0.987638
0.991164
0.989417
0.992423
0.991542
0.991368
0.991042
0.992503
0.98377
0.983505
0.986365
0.986733
0.986736
0.987206
0.989194
0.988879
0.988971
0.989102
0.974828
0.973469
0.752837
0.74786
0.796753
0.797618
0.759133
0.760139
0.664813
0.665395
0.968806
0.969654
0.974876
0.974317
0.968122
0.96745
0.965989
0.965281
0.968718
0.968246
0.970405
0.970511
0.970169
0.971009
0.970721
0.989302
0.989745
0.990375
0.989318
0.990926
0.991459
0.990297
0.990248
0.990451
0.990617
0.990097
0.990161
0.989414
0.989368
0.989719
0.989895
0.988284
0.988325
0.982642
0.982914
0.987371
0.987192
0.986492
0.987576
0.989716
0.9893
0.991134
0.991173
0.989984
0.9898
0.991055
0.990891
0.991465
0.991389
0.98778
0.987809
0.988477
0.988203
0.989289
0.989814
0.990513
0.990401
0.990811
0.99083
0.988671
0.988299
0.987364
0.984674
0.984491
0.984479
0.987374
0.987078
0.986488
0.98607
0.985984
0.985549
0.989712
0.988887
0.987963
0.988485
0.991529
0.99157
0.991838
0.991856
0.992194
0.992086
0.991792
0.991839
0.99014
0.990062
0.990022
0.990543
0.990702
0.99107
0.990923
0.991353
0.991335
0.99104
0.991043
0.990168
0.990172
0.990251
0.990382
0.976554
0.97623
0.976259
0.976524
0.978227
0.978042
0.981505
0.981164
0.983252
0.985073
0.985527
0.983358
0.982915
0.98168
0.982266
0.983854
0.983246
0.984602
0.985212
0.98713
0.987241
0.984608
0.984237
0.986115
0.985826
0.987299
0.987017
0.988331
0.988612
0.988095
0.987898
0.988373
0.98844
0.989899
0.989937
0.989935
0.989897
0.989175
0.988955
0.988947
0.986049
0.986032
0.987529
0.987924
0.986279
0.98671
0.912151
0.912103
0.912015
0.911964
0.924754
0.92473
0.93023
0.930214
0.949879
0.951173
0.947904
0.949362
0.940006
0.941669
0.928579
0.926595
0.925343
0.925436
0.90581
0.905792
0.895
0.89483
0.907559
0.907738
0.857426
0.854148
0.881779
0.881511
0.878557
0.875832
0.888692
0.891196
0.886766
0.889298
0.859093
0.855798
0.871904
0.874875
0.867166
0.870262
0.83238
0.832084
0.6293
0.6288
0.595172
0.60042
0.562827
0.561686
0.581356
0.586748
0.729211
0.723985
0.789473
0.794067
0.719998
0.720213
0.687033
0.687368
0.990777
0.990361
0.990128
0.988056
0.987653
0.991072
0.990332
0.991005
0.989732
0.966455
0.965191
0.991156
0.990993
0.982147
0.981694
0.983272
0.982987
0.987728
0.987226
0.987967
0.988153
0.987857
0.988374
0.978429
0.979325
0.971952
0.972072
0.652813
0.648718
0.816451
0.817242
0.792923
0.79204
0.798487
0.799362
0.634941
0.635547
0.69415
0.695267
0.981327
0.981851
0.949884
0.950073
0.962235
0.962663
0.979606
0.980182
0.972644
0.973227
0.966317
0.966959
0.969059
0.968577
0.969064
0.969575
0.970589
0.970193
0.969946
0.980078
0.99067
0.99045
0.991306
0.99086
0.990302
0.99032
0.990086
0.990247
0.989583
0.989629
0.989077
0.988433
0.988396
0.988926
0.981803
0.982018
0.981577
0.983775
0.983271
0.988122
0.987834
0.985816
0.98564
0.990753
0.989766
0.99065
0.989833
0.990701
0.99063
0.991266
0.991286
0.990972
0.991271
0.990902
0.98817
0.987925
0.987601
0.987709
0.988843
0.989082
0.990414
0.99025
0.990567
0.989289
0.989985
0.988932
0.988259
0.987608
0.987807
0.986302
0.987064
0.986022
0.987959
0.988721
0.988387
0.987928
0.987486
0.986901
0.986601
0.985651
0.98534
0.989125
0.99049
0.990184
0.991679
0.991666
0.991627
0.991749
0.991744
0.991743
0.990521
0.990567
0.989982
0.990245
0.990507
0.990706
0.990904
0.990768
0.990821
0.990889
0.991216
0.991227
0.990341
0.990273
0.977808
0.977456
0.979035
0.978753
0.977134
0.976854
0.977592
0.977725
0.982244
0.981905
0.982228
0.982641
0.984185
0.983656
0.983831
0.98428
0.983942
0.984556
0.985526
0.985481
0.984752
0.98446
0.986641
0.986926
0.98705
0.986683
0.988252
0.988363
0.98774
0.987541
0.988782
0.988734
0.989685
0.989649
0.989385
0.98942
0.989357
0.989178
0.986021
0.985948
0.985591
0.985579
0.986955
0.987125
0.914212
0.914264
0.922836
0.922809
0.926604
0.928432
0.94016
0.941747
0.931855
0.932128
0.951934
0.952176
0.950788
0.950773
0.946405
0.944877
0.943303
0.943309
0.936122
0.937916
0.927122
0.929077
0.870767
0.867728
0.908069
0.908085
0.910439
0.908146
0.910387
0.910544
0.903338
0.903511
0.900192
0.869395
0.872519
0.875604
0.878608
0.882144
0.878732
0.876006
0.888491
0.890993
0.891397
0.891599
0.885194
0.885337
0.882486
0.879571
0.861445
0.864564
0.871502
0.874416
0.866832
0.869946
0.835757
0.839374
0.851106
0.851306
0.627846
0.621901
0.641488
0.635363
0.60581
0.606337
0.571127
0.567693
0.561609
0.560455
0.573166
0.569059
0.729384
0.724193
0.800625
0.800753
0.759066
0.758906
0.708497
0.708236
0.714887
0.714636
0.645609
0.645686
0.554282
0.554299
0.989948
0.99003
0.989001
0.988639
0.990415
0.990312
0.989616
0.989189
0.990605
0.989417
0.99138
0.986209
0.986393
0.992475
0.992777
0.982662
0.982269
0.982162
0.984098
0.984345
0.986734
0.986136
0.990154
0.989489
0.990439
0.989507
0.988889
0.988939
0.987599
0.973923
0.974372
0.973342
0.974697
0.752288
0.753201
0.63269
0.631414
0.771455
0.770739
0.805022
0.805765
0.788156
0.787254
0.639747
0.640591
0.68968
0.688555
0.977994
0.97866
0.979922
0.980482
0.951342
0.951172
0.954132
0.955167
0.958385
0.958489
0.961113
0.960971
0.973794
0.974345
0.966361
0.965644
0.964636
0.963972
0.969312
0.968823
0.968136
0.968605
0.970788
0.97113
0.989811
0.989901
0.990092
0.989944
0.991052
0.991362
0.990704
0.990747
0.989997
0.989881
0.989787
0.989828
0.989356
0.98951
0.988975
0.989274
0.984167
0.98435
0.984344
0.987217
0.987726
0.988262
0.987956
0.986429
0.986209
0.989808
0.989925
0.991104
0.990968
0.990638
0.991349
0.986932
0.987042
0.988017
0.987909
0.99088
0.990913
0.990278
0.990473
0.991084
0.990468
0.987182
0.986899
0.986306
0.9884
0.987953
0.989235
0.988886
0.987816
0.987237
0.988121
0.98934
0.986179
0.986225
0.976721
0.976855
0.988814
0.989134
0.987718
0.9875
0.987865
0.986081
0.985341
0.985578
0.986686
0.986329
0.992342
0.991017
0.992008
0.991067
0.991729
0.991737
0.991936
0.992554
0.991593
0.991584
0.991604
0.99175
0.991707
0.990705
0.990751
0.989706
0.990093
0.990113
0.99031
0.990866
0.990692
0.991035
0.990965
0.978463
0.978097
0.975886
0.975327
0.978455
0.978141
0.979898
0.979539
0.979692
0.978745
0.979086
0.97931
0.981379
0.981536
0.981991
0.981955
0.983773
0.983247
0.985881
0.985975
0.98494
0.985236
0.985063
0.984691
0.987377
0.987658
0.986689
0.986319
0.988587
0.988698
0.988798
0.988769
0.989415
0.989378
0.989588
0.989415
0.986466
0.986394
0.954906
0.954878
0.920814
0.920825
0.9195
0.917464
0.928577
0.926762
0.933674
0.931986
0.941808
0.94016
0.919211
0.918993
0.940276
0.938572
0.948981
0.948849
0.944568
0.946296
0.947903
0.949361
0.939923
0.941607
0.944877
0.946409
0.943291
0.935965
0.937763
0.934295
0.938365
0.936635
0.929325
0.9274
0.855615
0.852267
0.861633
0.864865
0.888639
0.888632
0.90371
0.903797
0.916251
0.916452
0.914906
0.917079
0.899414
0.899213
0.905731
0.905901
0.895894
0.896061
0.866658
0.863513
0.878884
0.879267
0.890563
0.890784
0.883632
0.881062
0.889091
0.886557
0.893315
0.893474
0.879376
0.879201
0.864828
0.861707
0.868874
0.868508
0.876604
0.873602
0.857188
0.860464
0.787659
0.783014
0.847093
0.850477
0.844152
0.84398
0.850943
0.741631
0.736501
0.591374
0.59714
0.631059
0.63702
0.593684
0.598909
0.594213
0.599492
0.584124
0.589073
0.567098
0.570556
0.563137
0.563689
0.568193
0.572365
0.559493
0.5583
0.844965
0.848375
0.760633
0.760452
0.737218
0.737036
0.748432
0.743191
0.703184
0.70284
0.714394
0.714158
0.657922
0.658211
0.590975
0.591021
0.551358
0.550617
0.980222
0.980457
0.988318
0.988652
0.987901
0.989372
0.988994
0.989558
0.989263
0.989539
0.990032
0.989582
0.982571
0.98215
0.989024
0.988781
0.992281
0.99219
0.990744
0.990991
0.982891
0.983214
0.987293
0.987555
0.985707
0.986238
0.989157
0.989475
0.989837
0.989313
0.989109
0.989273
0.988814
0.986303
0.986378
0.986067
0.966154
0.966048
0.977814
0.978676
0.951439
0.952942
0.829171
0.829096
0.703255
0.708891
0.633711
0.632436
0.761163
0.765983
0.837708
0.837188
0.801157
0.800399
0.803091
0.803946
0.774397
0.775355
0.744698
0.745701
0.607155
0.605948
0.671931
0.673104
0.595044
0.59108
0.981602
0.982119
0.981018
0.981542
0.961921
0.960937
0.957919
0.956711
0.957606
0.957015
0.957769
0.961777
0.96193
0.977412
0.97676
0.97059
0.970003
0.966752
0.966027
0.965063
0.964382
0.964929
0.965516
0.97182
0.971385
0.96886
0.968384
0.969542
0.969084
0.979663
0.979658
0.989605
0.990088
0.99008
0.989808
0.990794
0.990884
0.990895
0.991056
0.989814
0.989684
0.990305
0.990302
0.989087
0.989098
0.980951
0.981026
0.984488
0.987902
0.991239
0.991227
0.987384
0.987275
0.991044
0.990342
0.99008
0.991422
0.989979
0.988132
0.988445
0.989046
0.989401
0.989047
0.988812
0.987326
0.9868
0.986392
0.983828
0.981701
0.981737
0.988987
0.989334
0.987738
0.987939
0.986606
0.987064
0.984926
0.991209
0.990609
0.991813
0.991024
0.99091
0.991196
0.992108
0.991333
0.99095
0.99187
0.99188
0.992044
0.991828
0.99146
0.991445
0.991619
0.991658
0.990477
0.990621
0.990258
0.990343
0.990514
0.990356
0.981232
0.980889
0.979784
0.979389
0.97771
0.977085
0.976475
0.978058
0.978319
0.977841
0.977177
0.977833
0.978496
0.980168
0.980839
0.980084
0.981232
0.987168
0.987367
0.986301
0.986408
0.984131
0.983763
0.987716
0.987994
0.98846
0.988433
0.989294
0.989367
0.950787
0.949643
0.965866
0.965782
0.883558
0.886251
0.942485
0.944058
0.941519
0.940032
0.922927
0.922993
0.933743
0.932066
0.92845
0.926625
0.930257
0.946802
0.948022
0.923117
0.923352
0.920851
0.918776
0.94082
0.942278
0.949587
0.950879
0.950756
0.950537
0.95067
0.950583
0.952186
0.953558
0.950786
0.943274
0.943251
0.944871
0.946407
0.935783
0.93758
0.934536
0.934427
0.920885
0.922966
0.927317
0.929252
0.861611
0.858437
0.864841
0.861616
0.886225
0.883695
0.88867
0.91464
0.914653
0.897668
0.895182
0.90854
0.908343
0.912492
0.912294
0.912649
0.9128
0.906996
0.907187
0.903164
0.905558
0.898421
0.898593
0.895733
0.856558
0.859829
0.872711
0.86956
0.888281
0.885783
0.875679
0.878379
0.88617
0.885982
0.8901
0.892593
0.887975
0.888118
0.885096
0.858788
0.855492
0.870826
0.873704
0.868171
0.873327
0.876366
0.856469
0.85976
0.863677
0.848218
0.848244
0.846889
0.850287
0.847368
0.847255
0.843896
0.84747
0.762426
0.757517
0.670444
0.669695
0.602259
0.603799
0.599245
0.630439
0.636419
0.629272
0.623317
0.61134
0.617007
0.604877
0.605321
0.583682
0.588684
0.566538
0.570024
0.56427
0.564882
0.58823
0.582784
0.568617
0.572761
0.562997
0.55997
0.82273
0.818806
0.809318
0.805065
0.756168
0.755952
0.770715
0.770635
0.792057
0.796267
0.753681
0.753769
0.737568
0.737665
0.70715
0.712713
0.702521
0.70223
0.692736
0.693095
0.65851
0.658755
0.553403
0.553173
0.551381
0.551089
0.550708
0.977886
0.977286
0.991938
0.991807
0.988749
0.989561
0.989043
0.988313
0.989176
0.989683
0.990021
0.990057
0.989452
0.989274
0.966438
0.965184
0.986911
0.986724
0.991042
0.99082
0.992124
0.992068
0.99226
0.992241
0.992077
0.992088
0.991146
0.991028
0.984301
0.985011
0.987032
0.987365
0.985584
0.985406
0.985166
0.989889
0.989133
0.988636
0.990454
0.990978
0.988982
0.988709
0.988514
0.992998
0.991456
0.991515
0.972863
0.973179
0.973557
0.977434
0.976149
0.9337
0.934093
0.907257
0.907093
0.793697
0.794235
0.701065
0.706753
0.702443
0.708084
0.6347
0.633426
0.664429
0.659148
0.766707
0.761897
0.835246
0.835916
0.796481
0.795708
0.793362
0.79254
0.80762
0.808457
0.776532
0.7756
0.764284
0.765276
0.642756
0.643941
0.612223
0.60931
0.602864
0.601695
0.680781
0.681826
0.669943
0.670793
0.629691
0.624639
0.579121
0.577903
0.9805
0.981065
0.980141
0.979584
0.961243
0.962236
0.956465
0.957664
0.964046
0.964447
0.958348
0.958066
0.962128
0.962366
0.972803
0.971966
0.974247
0.974679
0.967166
0.966431
0.967048
0.96771
0.964827
0.964155
0.966081
0.966624
0.971496
0.971875
0.969615
0.969118
0.969761
0.969319
0.968633
0.968163
0.978942
0.978492
0.989953
0.990466
0.991046
0.989799
0.989623
0.990743
0.990811
0.989912
0.980828
0.979723
0.980057
0.99105
0.990371
0.991511
0.990255
0.990383
0.98803
0.987637
0.989066
0.989515
0.990139
0.988218
0.985897
0.981053
0.981066
0.984225
0.983448
0.982861
0.988385
0.988771
0.986815
0.98705
0.990609
0.989287
0.991975
0.991061
0.990981
0.991338
0.991473
0.99159
0.991623
0.991472
0.991308
0.991804
0.991814
0.991906
0.992162
0.991419
0.991451
0.99167
0.991677
0.990444
0.990275
0.978814
0.979147
0.978974
0.978342
0.976832
0.977168
0.979301
0.978557
0.978388
0.978285
0.981571
0.986974
0.986773
0.987522
0.987634
0.985394
0.985686
0.989092
0.989006
0.970619
0.971216
0.977176
0.977024
0.964834
0.964813
0.891333
0.891287
0.891253
0.891218
0.944273
0.945718
0.933642
0.931941
0.93233
0.934036
0.946241
0.947473
0.918866
0.918833
0.924791
0.922876
0.930294
0.930345
0.928482
0.92666
0.946652
0.947862
0.925116
0.925359
0.921076
0.921302
0.932864
0.934546
0.948959
0.950259
0.949275
0.950571
0.950346
0.951696
0.946595
0.944849
0.952424
0.952672
0.950767
0.950729
0.953535
0.952167
0.941642
0.93997
0.934136
0.933955
0.936499
0.938255
0.923096
0.921024
0.927225
0.92917
0.855795
0.852446
0.855087
0.851746
0.864794
0.861584
0.885978
0.885947
0.896334
0.896365
0.912507
0.912493
0.908714
0.906445
0.911551
0.911383
0.910638
0.910837
0.916658
0.916868
0.91827
0.918443
0.896968
0.896766
0.902429
0.902236
0.902986
0.902805
0.907912
0.908081
0.895577
0.89542
0.900902
0.901076
0.869989
0.872898
0.860003
0.856743
0.872882
0.8697
0.889689
0.889881
0.883994
0.88139
0.878433
0.875716
0.876228
0.87895
0.88992
0.892412
0.890678
0.890828
0.859421
0.856127
0.870555
0.873431
0.866141
0.869249
0.873036
0.876119
0.862983
0.863329
0.78777
0.78311
0.832987
0.829276
0.843692
0.84346
0.840381
0.840501
0.8476
0.847787
0.742229
0.737105
0.658888
0.652978
0.57565
0.574564
0.615761
0.621857
0.623275
0.622734
0.618684
0.624518
0.621218
0.627081
0.622831
0.628828
0.610847
0.616505
0.599925
0.594656
0.564877
0.56374
0.566008
0.569527
0.582122
0.58761
0.567787
0.57198
0.558156
0.556934
0.557374
0.556131
0.830246
0.830209
0.818763
0.822686
0.804898
0.809113
0.755763
0.755584
0.784723
0.784794
0.792274
0.796361
0.748351
0.748354
0.753592
0.758731
0.726496
0.732064
0.737767
0.737873
0.708774
0.709067
0.68016
0.681054
0.652034
0.651867
0.602323
0.608297
0.615998
0.615998
0.563476
0.563418
0.552856
0.976665
0.976063
0.981322
0.980646
0.991585
0.991482
0.987507
0.987509
0.989736
0.989122
0.988571
0.988794
0.990332
0.990625
0.990889
0.990539
0.989922
0.990137
0.990966
0.990502
0.978505
0.978148
0.981296
0.981635
0.987024
0.987378
0.988889
0.98852
0.990959
0.991168
0.991955
0.992016
0.992061
0.992074
0.9922
0.992361
0.992199
0.99268
0.992332
0.992353
0.990945
0.990726
0.985921
0.985403
0.985429
0.987045
0.985931
0.986481
0.987954
0.98854
0.989335
0.989772
0.990221
0.990004
0.990392
0.989994
0.986756
0.986635
0.986664
0.99044
0.989815
0.988227
0.98845
0.971717
0.972303
0.972504
0.973008
0.977563
0.976924
0.973122
0.974466
0.967556
0.967654
0.952492
0.95363
0.963287
0.963035
0.798415
0.80309
0.806653
0.811318
0.741598
0.746973
0.738934
0.733436
0.647943
0.652041
0.634924
0.635942
0.654055
0.649206
0.783794
0.788318
0.82748
0.827015
0.852091
0.851483
0.822778
0.823512
0.752534
0.756988
0.799654
0.804294
0.80679
0.805964
0.812073
0.812889
0.76353
0.762582
0.780566
0.781479
0.769372
0.770349
0.721471
0.722539
0.655866
0.656918
0.607841
0.610712
0.694398
0.693396
0.686332
0.687409
0.6753
0.676279
0.663752
0.618231
0.613293
0.580272
0.579068
0.98079
0.980227
0.950272
0.950483
0.966711
0.967602
0.96093
0.962072
0.951165
0.949927
0.96569
0.966107
0.964003
0.964416
0.959027
0.958667
0.959532
0.959745
0.960024
0.960068
0.962422
0.962345
0.972925
0.972081
0.973685
0.974106
0.97126
0.970592
0.969138
0.969703
0.969397
0.96877
0.965336
0.964647
0.964385
0.963736
0.96672
0.966171
0.967676
0.96717
0.971006
0.971431
0.970239
0.969785
0.969173
0.969619
0.97726
0.977973
0.979458
0.990449
0.990106
0.97987
0.979445
0.98765
0.98737
0.989875
0.990107
0.990781
0.984943
0.985221
0.986607
0.988351
0.988578
0.989271
0.978562
0.979304
0.980788
0.981529
0.983274
0.982426
0.988443
0.988579
0.991354
0.990514
0.990235
0.991228
0.991321
0.991226
0.991063
0.991442
0.991485
0.991515
0.991775
0.991837
0.991905
0.991955
0.99156
0.991516
0.980184
0.98051
0.978743
0.979124
0.978806
0.979114
0.986561
0.986361
0.971707
0.97109
0.982359
0.982867
0.972474
0.973384
0.955862
0.957036
0.95623
0.956198
0.877563
0.877445
0.888448
0.888387
0.907719
0.905481
0.919342
0.917255
0.947126
0.92621
0.926274
0.92278
0.922791
0.918801
0.916742
0.946765
0.94802
0.944998
0.94519
0.947369
0.947304
0.916813
0.916777
0.920875
0.920845
0.932018
0.933701
0.93722
0.935641
0.947451
0.948714
0.927074
0.927326
0.922883
0.920206
0.918155
0.934779
0.93309
0.948642
0.949947
0.945266
0.94663
0.947693
0.94747
0.950137
0.951446
0.946576
0.944768
0.951763
0.953113
0.947886
0.949325
0.952184
0.953557
0.922336
0.922149
0.930178
0.932086
0.930665
0.932565
0.930898
0.932783
0.936555
0.938301
0.933058
0.931211
0.92701
0.928973
0.925241
0.868673
0.871859
0.855304
0.85196
0.855181
0.85184
0.878414
0.878967
0.876765
0.883248
0.883191
0.893815
0.893836
0.914674
0.914651
0.899492
0.899632
0.908159
0.908115
0.915381
0.915533
0.909492
0.907214
0.914297
0.914102
0.910242
0.910048
0.914701
0.914497
0.917048
0.91718
0.894497
0.894294
0.904825
0.904633
0.905382
0.905201
0.908246
0.895256
0.897737
0.898252
0.900729
0.857788
0.854497
0.860171
0.856926
0.866758
0.863645
0.880894
0.878426
0.887252
0.887038
0.885215
0.887778
0.881208
0.883803
0.881604
0.884205
0.887612
0.887422
0.882697
0.880943
0.883069
0.865787
0.862641
0.85494
0.858237
0.867868
0.8676
0.872327
0.875402
0.860108
0.856823
0.841058
0.841032
0.833618
0.830005
0.842926
0.846421
0.836885
0.834458
0.837409
0.840171
0.850648
0.850796
0.810244
0.806011
0.794387
0.798943
0.744171
0.74921
0.729649
0.730171
0.663199
0.657487
0.591857
0.59561
0.595235
0.627643
0.633797
0.62836
0.63447
0.617281
0.61669
0.625171
0.619395
0.635037
0.64154
0.622318
0.628313
0.610376
0.616001
0.568998
0.572401
0.565527
0.566206
0.580699
0.586063
0.581732
0.587161
0.577399
0.577755
0.559984
0.558802
0.55858
0.557367
0.557755
0.556522
0.848253
0.848239
0.822777
0.818855
0.840933
0.841013
0.760815
0.761004
0.79382
0.793925
0.784786
0.778193
0.773444
0.742943
0.742879
0.758687
0.7536
0.7322
0.72667
0.713938
0.719238
0.691804
0.692312
0.672655
0.671899
0.651637
0.651394
0.604254
0.60402
0.554532
0.554751
0.628675
0.628739
0.568363
0.568288
0.960979
0.961915
0.988114
0.988713
0.988568
0.98267
0.982297
0.991241
0.991363
0.990289
0.990209
0.990039
0.990834
0.989202
0.989525
0.988126
0.98871
0.988249
0.988511
0.988935
0.990341
0.963808
0.962649
0.980055
0.97996
0.982746
0.983174
0.982351
0.98248
0.989756
0.989375
0.98809
0.987721
0.98803
0.988296
0.98919
0.988822
0.991176
0.990965
0.990731
0.991846
0.991863
0.992369
0.992039
0.992083
0.992144
0.992134
0.99176
0.991034
0.992264
0.99187
0.991862
0.992219
0.99221
0.99165
0.992079
0.982299
0.982206
0.985243
0.984693
0.986028
0.986065
0.986479
0.986904
0.986634
0.987723
0.98735
0.988946
0.989513
0.98887
0.990721
0.986477
0.98532
0.980267
0.980813
0.990512
0.98951
0.989991
0.963265
0.962937
0.971482
0.972071
0.973305
0.973855
0.972916
0.977104
0.977309
0.970666
0.970198
0.971745
0.862062
0.858836
0.953772
0.95264
0.961683
0.961917
0.901574
0.90452
0.843117
0.842708
0.815907
0.815862
0.756481
0.751145
0.747892
0.742523
0.715289
0.720887
0.699893
0.694282
0.635656
0.634383
0.65597
0.661276
0.648155
0.653012
0.741751
0.736593
0.77455
0.76983
0.819446
0.81556
0.827879
0.841617
0.841086
0.831932
0.832576
0.836581
0.820754
0.82152
0.79276
0.792025
0.794951
0.80224
0.801396
0.771517
0.770563
0.763289
0.762291
0.740302
0.739276
0.681696
0.682788
0.616617
0.617995
0.633904
0.638733
0.611228
0.612675
0.600032
0.598867
0.726348
0.727306
0.679692
0.685229
0.668903
0.674233
0.588998
0.587858
0.589963
0.593966
0.978115
0.977464
0.979298
0.979914
0.956829
0.9568
0.951746
0.951535
0.968107
0.968947
0.968468
0.969311
0.953302
0.95197
0.951441
0.950195
0.966497
0.966918
0.964861
0.965275
0.960621
0.960985
0.959048
0.959337
0.95747
0.957363
0.959211
0.959277
0.961577
0.961595
0.963013
0.963014
0.981651
0.982182
0.979808
0.979236
0.969753
0.968971
0.975948
0.97542
0.970128
0.970786
0.968746
0.9693
0.968348
0.968964
0.967822
0.967237
0.966084
0.965469
0.964487
0.963831
0.96789
0.967376
0.966646
0.966101
0.972633
0.972239
0.970928
0.970457
0.969523
0.96997
0.978842
0.979095
0.978754
0.978643
0.979712
0.97957
0.979329
0.978927
0.984589
0.984312
0.987639
0.987918
0.990493
0.990414
0.991247
0.991206
0.991474
0.985983
0.985258
0.987295
0.9868
0.988032
0.988339
0.9802
0.980479
0.980084
0.980009
0.982868
0.982114
0.982584
0.989272
0.99097
0.991614
0.99169
0.991643
0.99159
0.991418
0.99197
0.991845
0.979469
0.979776
0.972237
0.971589
0.981929
0.98243
0.972248
0.973152
0.952158
0.953419
0.963674
0.963689
0.893914
0.893869
0.886705
0.884109
0.880361
0.880237
0.888522
0.90554
0.905509
0.907683
0.907646
0.919432
0.917343
0.944283
0.942671
0.94926
0.950589
0.924704
0.924713
0.920814
0.918973
0.916914
0.940409
0.941893
0.943774
0.942973
0.944096
0.946031
0.946109
0.918912
0.916862
0.921042
0.920972
0.920917
0.938552
0.938559
0.938753
0.943066
0.944413
0.933506
0.933744
0.924874
0.926822
0.922214
0.929807
0.927975
0.938587
0.936974
0.947637
0.947315
0.947326
0.946073
0.948287
0.947963
0.947601
0.946578
0.947644
0.941498
0.939782
0.94923
0.948022
0.948794
0.951534
0.952908
0.949348
0.947896
0.926747
0.926885
0.932268
0.93036
0.932682
0.930789
0.936432
0.938198
0.934768
0.931148
0.933004
0.925129
0.925008
0.878739
0.881342
0.866067
0.862878
0.861924
0.858722
0.858339
0.861504
0.864719
0.861535
0.875988
0.873245
0.880428
0.880346
0.886044
0.883365
0.908267
0.908325
0.910311
0.910333
0.912492
0.91464
0.891807
0.891736
0.901224
0.901175
0.914833
0.914913
0.915007
0.915117
0.901244
0.90144
0.91191
0.912099
0.90932
0.909155
0.915698
0.915872
0.912894
0.913096
0.907952
0.907761
0.915906
0.918088
0.919183
0.919305
0.895082
0.894896
0.906405
0.906603
0.904435
0.9068
0.905014
0.907375
0.897914
0.898084
0.867366
0.864329
0.857599
0.854316
0.85344
0.85324
0.863054
0.866239
0.882667
0.883103
0.875765
0.87609
0.884558
0.884317
0.890098
0.890329
0.879883
0.877223
0.884435
0.88185
0.889718
0.892214
0.887745
0.890247
0.887866
0.890549
0.885306
0.885229
0.862307
0.865443
0.8585
0.855204
0.86961
0.86649
0.81793
0.822019
0.827139
0.823928
0.826252
0.839688
0.836125
0.849863
0.850079
0.836234
0.836447
0.836144
0.843891
0.843848