/*--------------------------------*- C++ -*----------------------------------*\
  =========                 |
  \\      /  F ield         | OpenFOAM: The Open Source CFD Toolbox
   \\    /   O peration     | Website:  https://openfoam.org
    \\  /    A nd           | Version:  7
     \\/     M anipulation  |
\*---------------------------------------------------------------------------*/
FoamFile
{
    version     2.0;
    format      ascii;
    class       volScalarField;
    location    "1860";
    object      T;
}
// * * * * * * * * * * * * * * * * * * * * * * * * * * * * * * * * * * * * * //

dimensions      [0 0 0 1 0 0 0];

internalField   nonuniform List<scalar> 
238806
(
0.0228147
0.0209236
0.0831755
0.124217
0.107001
0.0120447
0.013145
0.0152012
0.0164365
0.0495944
0.0456389
0.104564
0.0102196
0.0095541
0.163241
0.152563
0.0584185
0.0530175
0.0112682
0.0101367
0.0131231
0.014655
0.121484
0.0923229
0.124555
0.0749531
0.071166
0.0850736
0.0968428
0.130628
0.0110911
0.0114268
0.0376451
0.0331815
0.0130238
0.0129372
0.476172
0.485606
0.0440087
0.039327
0.0410499
0.123716
0.0129119
0.0129122
0.0101425
0.0116518
0.0632405
0.0563473
0.0289643
0.0246496
0.0109113
0.0116171
0.00998012
0.00937823
0.0517132
0.0551512
0.052757
0.0533548
0.0473576
0.0600482
0.0543228
0.0666495
0.037314
0.0335823
0.0312363
0.0109358
0.0101829
0.0176637
0.0242975
0.0163619
0.015185
0.0287401
0.0327844
0.0228074
0.0267535
0.0109967
0.0110907
0.0130582
0.0129619
0.0259779
0.0250286
0.0296137
0.0249285
0.0222206
0.0166035
0.0157318
0.015026
0.0873454
0.0947443
0.0847025
0.0838881
0.0491447
0.0455389
0.0226088
0.0332623
0.0137106
0.0136303
0.0406156
0.047676
0.133771
0.0118976
0.0085437
0.0115673
0.0106669
0.0116865
0.0173098
0.0192186
0.0200497
0.0231918
0.0308778
0.0351092
0.0149435
0.0130073
0.0117948
0.0110796
0.0111707
0.0109185
0.64229
0.792215
0.738828
0.16723
0.210029
0.0172105
0.022097
0.0119175
0.0130415
0.124921
0.170011
0.0808785
0.105998
0.0421501
0.0609953
0.072444
0.131331
0.068936
0.052778
0.0160047
0.0161205
0.126593
0.137577
0.113446
0.134739
0.0353084
0.0349962
0.0520287
0.00925129
0.0133149
0.0108236
0.00834768
0.00925142
0.0120895
0.00855815
0.00979145
0.0242788
0.0272299
0.0172086
0.0195257
0.0267919
0.0306349
0.0128178
0.0141904
0.0110808
0.0110557
0.00899531
0.00855258
0.0111521
0.0109546
0.022965
0.0225988
0.294763
0.302788
0.0274844
0.0234346
0.201721
0.192666
0.380407
0.0169568
0.0222386
0.0114322
0.010726
0.135607
0.186804
0.152295
0.0727205
0.0711855
0.0652854
0.0594348
0.0897084
0.0228567
0.0229135
0.0102652
0.0102515
0.0403096
0.0608967
0.0525654
0.0552217
0.0454765
0.120928
0.159399
0.0942881
0.127003
0.0238896
0.0166827
0.020441
0.02767
0.0189431
0.0257001
0.0177342
0.0169069
0.0113255
0.00895402
0.0735491
0.0800684
0.0289401
0.0321304
0.0341985
0.0304341
0.0495806
0.0429448
0.0248373
0.0213129
0.0125149
0.0143274
0.0114372
0.0109454
0.00858386
0.00909627
0.0123554
0.0122299
0.0214848
0.0211671
0.0318583
0.0313732
0.039235
0.0384691
0.0554769
0.0565603
0.0139374
0.0146477
0.0629489
0.0674917
0.225762
0.253578
0.0442077
0.0441425
0.0175155
0.0219083
0.0106362
0.0110913
0.0115268
0.0112713
0.0246401
0.0234694
0.0495209
0.0557707
0.0624288
0.0655322
0.0506273
0.051727
0.0341882
0.034537
0.0103308
0.0102943
0.0131792
0.0139506
0.0182076
0.0190907
0.0431722
0.0390558
0.0601919
0.0660203
0.0394592
0.0942373
0.0829489
0.113882
0.097921
0.0170088
0.0241529
0.0103682
0.0154607
0.0123978
0.00884326
0.0126649
0.0133572
0.01128
0.0122686
0.00972722
0.00845921
0.0394201
0.0373487
0.0593941
0.0653677
0.0276485
0.0306909
0.0338697
0.037671
0.0346326
0.0391111
0.0398385
0.0456185
0.0250565
0.0286613
0.0123808
0.0119616
0.0158126
0.0183809
0.0121247
0.011425
0.0109456
0.0111997
0.0122138
0.0130991
0.0113537
0.0124896
0.0089732
0.00901954
0.0945484
0.0945794
0.0231287
0.0227858
0.0292772
0.0298271
0.025482
0.026459
0.0459575
0.0468829
0.0583094
0.0571641
0.715417
0.0258164
0.0222286
0.16233
0.134213
0.0989865
0.100681
0.0105197
0.0105643
0.110488
0.110064
0.041484
0.0530431
0.0118252
0.0129178
0.0106613
0.0112555
0.0130534
0.0157191
0.141405
0.128005
0.100335
0.137805
0.0879278
0.0893473
0.0756475
0.0832861
0.0111519
0.0113375
0.01033
0.0129307
0.0129669
0.012878
0.0137894
0.0377123
0.0283522
0.0577959
0.0388671
0.116952
0.102662
0.146843
0.0373013
0.0345416
0.0770031
0.0629861
0.144072
0.1064
0.0832087
0.100674
0.0275934
0.0374502
0.0540904
0.0360981
0.010805
0.0102658
0.0239834
0.0329162
0.0221944
0.0303545
0.0184677
0.0193101
0.0209571
0.0222862
0.0117146
0.0107186
0.00877659
0.00824432
0.0123705
0.011531
0.00875384
0.0107135
0.0123889
0.0116541
0.0722687
0.0668909
0.0160622
0.0145016
0.0265071
0.0294119
0.0320338
0.0355877
0.0409607
0.0457863
0.0513631
0.057433
0.023533
0.0268731
0.0117985
0.0121818
0.0151021
0.0174052
0.011253
0.0119644
0.00886735
0.00877161
0.0132514
0.0131545
0.0115599
0.0126307
0.00897576
0.0401428
0.0396632
0.0211318
0.0208386
0.024264
0.0247265
0.0236439
0.0232866
0.0339032
0.0343487
0.0389465
0.0382155
0.0450932
0.0459766
0.106707
0.124536
0.0525875
0.0516012
0.0640613
0.0562823
0.0579965
0.0396668
0.0365594
0.199854
0.20789
0.156618
0.192855
0.0506592
0.0540006
0.0231593
0.0228218
0.0913124
0.0901354
0.434573
0.744915
0.200532
0.257242
0.0591443
0.0451049
0.0109774
0.0139508
0.0124204
0.013335
0.0118255
0.0208681
0.0179042
0.0204525
0.0853312
0.0817153
0.111343
0.146742
0.0614318
0.0909398
0.068419
0.0223268
0.0324002
0.0109233
0.0158884
0.0109589
0.010936
0.0134601
0.0141194
0.0114348
0.0116674
0.0125376
0.0127148
0.0267057
0.0249876
0.0355046
0.0298319
0.126833
0.058986
0.052872
0.0742589
0.143184
0.141499
0.115879
0.145938
0.077513
0.0740431
0.032366
0.035031
0.0330442
0.0476898
0.0171607
0.0241111
0.0120569
0.0120272
0.0117191
0.0177892
0.0143431
0.00976568
0.0159941
0.0155361
0.014116
0.013628
0.0105135
0.0105096
0.0114169
0.0123201
0.0101961
0.0141424
0.01171
0.0124733
0.00859149
0.0099144
0.0094642
0.00853724
0.0587801
0.0615395
0.162243
0.126729
0.0178391
0.0158803
0.0198969
0.0178587
0.0248063
0.0222123
0.0286919
0.0255508
0.0303951
0.033751
0.0382896
0.0427415
0.0474173
0.0529684
0.0205697
0.0180249
0.0222104
0.0252777
0.0123831
0.0129297
0.0118543
0.0113821
0.0144835
0.016561
0.020845
0.0175165
0.0125535
0.011922
0.0104078
0.0118756
0.00979967
0.00947178
0.00919409
0.00904208
0.0131171
0.0132163
0.00910665
0.0092268
0.242236
0.246723
0.150381
0.145292
0.0226163
0.0223054
0.0233417
0.0229793
0.0296648
0.0291415
0.0599986
0.0603635
0.0583782
0.0688999
0.0383886
0.0394865
0.0450773
0.0442182
0.189486
0.192811
0.369478
0.377931
0.0679064
0.066724
0.078619
0.0729326
0.0821295
0.0938979
0.0629463
0.0917687
0.0498152
0.0455549
0.031755
0.0360435
0.0523462
0.0450565
0.12762
0.102139
0.0437624
0.0444305
0.278493
0.277702
0.0506018
0.0583763
0.03957
0.0393845
0.57165
0.568974
0.366307
0.494976
0.758735
0.757671
0.0386611
0.0487919
0.0302872
0.030888
0.0103296
0.0102216
0.0105198
0.0104276
0.0123144
0.0132875
0.0185987
0.0195721
0.0218678
0.0206212
0.149727
0.206475
0.0360982
0.0329897
0.048142
0.0569979
0.0661991
0.077668
0.108128
0.0220817
0.0311838
0.0488673
0.0474393
0.0108227
0.0158457
0.0162062
0.0161961
0.0135965
0.0142076
0.00956101
0.00979249
0.0130326
0.0138699
0.016228
0.0172732
0.0281798
0.0292315
0.0838223
0.100254
0.0786903
0.127825
0.0433211
0.0399486
0.0685537
0.0735616
0.0642216
0.0313288
0.0284633
0.0564414
0.0665788
0.163589
0.114933
0.0260286
0.0242726
0.0362443
0.0541272
0.0102261
0.010851
0.0258864
0.0357838
0.0135452
0.0119594
0.0134828
0.0162753
0.0199864
0.021184
0.0226216
0.0107979
0.0108961
0.0105288
0.0105724
0.00822278
0.00904329
0.0196444
0.0179298
0.00886795
0.0102149
0.0116298
0.0124224
0.0141669
0.0132271
0.0411954
0.043496
0.0572586
0.0541381
0.10298
0.122437
0.0640284
0.071736
0.0238762
0.0210683
0.0171591
0.0153472
0.0206838
0.0184945
0.0213827
0.0238166
0.0303296
0.0269959
0.035937
0.0400386
0.0439946
0.0491704
0.0217816
0.0189652
0.0116516
0.0120316
0.0125775
0.0137997
0.0118098
0.0132402
0.0166168
0.0195163
0.0111877
0.0110691
0.0127245
0.0126631
0.00882107
0.00861823
0.00887012
0.00952676
0.00929882
0.0133209
0.0133487
0.00916236
0.00900207
0.00975135
0.00953961
0.0181338
0.0186357
0.463776
0.430318
0.447345
0.448464
0.022482
0.0221576
0.0220758
0.0224983
0.024846
0.0244129
0.0228857
0.0225417
0.0374967
0.0378625
0.0607451
0.0704666
0.0322192
0.0332538
0.0451188
0.0444549
0.0328146
0.0322484
0.0341411
0.0335548
0.0433914
0.0442323
0.126796
0.124822
0.150782
0.147543
0.199273
0.202447
0.765128
0.774965
0.146651
0.150893
0.0682214
0.0693299
0.768812
0.752554
0.702508
0.0531014
0.0634845
0.0394583
0.0348715
0.0434146
0.0105982
0.0106745
0.0570421
0.0609779
0.0534104
0.0484214
0.0250452
0.0226132
0.0332639
0.0295285
0.0844234
0.0910693
0.0844774
0.0823777
0.0150686
0.0154098
0.0720367
0.0735195
0.0463798
0.0471894
0.0585104
0.062559
0.156028
0.193875
0.01432
0.0141645
0.0239897
0.0235471
0.0318594
0.0316795
0.0392445
0.0391454
0.109911
0.109879
0.200636
0.125903
0.175585
0.127797
0.127178
0.0362095
0.0392405
0.0437429
0.0567113
0.0118104
0.0121236
0.0126889
0.0141308
0.010991
0.0103829
0.0129936
0.0107672
0.0134892
0.0127349
0.0205949
0.0164938
0.0257091
0.0273551
0.0789804
0.102425
0.0296158
0.0276
0.0668317
0.0552811
0.0748267
0.0994063
0.031423
0.0219848
0.0599425
0.0876707
0.0132189
0.0132616
0.0109548
0.010937
0.0133219
0.0140343
0.0100316
0.0102761
0.0311198
0.0237641
0.0232835
0.0215385
0.0198963
0.0207905
0.083428
0.0670445
0.0858933
0.144221
0.182328
0.152802
0.0385245
0.0356567
0.0494518
0.0459812
0.0964767
0.120745
0.0441459
0.0475664
0.0872074
0.0686148
0.08216
0.0819587
0.0169126
0.0230108
0.0359906
0.0544151
0.0166211
0.0110273
0.0122092
0.0114395
0.0131247
0.0147359
0.0154741
0.0117622
0.011826
0.0121646
0.010922
0.0130445
0.00966277
0.0117785
0.0125247
0.0102021
0.00862596
0.0562602
0.0537394
0.0647795
0.0686708
0.109097
0.091195
0.0618189
0.0565968
0.0740423
0.0186225
0.0164978
0.0141795
0.0156278
0.0259402
0.023172
0.0286209
0.0321532
0.0421305
0.0370801
0.012234
0.0128089
0.0122618
0.0132112
0.011428
0.0117674
0.0113918
0.0121951
0.0137498
0.0121117
0.0113099
0.0111175
0.0107658
0.0121161
0.012327
0.0125745
0.0118337
0.0103272
0.00897121
0.0101516
0.00914419
0.0134303
0.0134466
0.00997737
0.00975323
0.0106718
0.0104345
0.0996554
0.125302
0.467694
0.433808
0.130354
0.0952905
0.140885
0.0946191
0.0202352
0.0199215
0.0227626
0.0223683
0.0246535
0.0242503
0.0235881
0.0239665
0.0286278
0.0287366
0.086177
0.0703924
0.0619834
0.0718351
0.0306322
0.0315859
0.0461049
0.0469714
0.0673231
0.0782628
0.0346114
0.0352529
0.0342187
0.0336186
0.0307145
0.0302116
0.0376522
0.0383435
0.0362989
0.035613
0.0433804
0.0425611
0.0429874
0.0457512
0.12728
0.108957
0.261809
0.257498
0.707628
0.717965
0.113775
0.111544
0.0888003
0.0899165
0.0689636
0.0675626
0.0878256
0.0837341
0.0664805
0.0645366
0.0217733
0.0224364
0.0184207
0.0683192
0.0769151
0.0697916
0.0833331
0.0925899
0.0878761
0.0183635
0.0187429
0.0196319
0.0184128
0.0563086
0.0513005
0.0442536
0.0406634
0.0346405
0.0397079
0.131335
0.125776
0.0955125
0.118592
0.0103223
0.0101073
0.0154764
0.0157631
0.244894
0.250537
0.0456707
0.0485463
0.048149
0.0472865
0.0496182
0.0528657
0.134308
0.11689
0.088801
0.103771
0.0104283
0.010272
0.0231099
0.0207026
0.0232653
0.0214056
0.0123876
0.0123249
0.0250087
0.0253855
0.044327
0.0444926
0.0760379
0.0758337
0.553579
0.53599
0.0902006
0.0900806
0.178653
0.15265
0.0293191
0.0281427
0.0131239
0.0127828
0.0108721
0.0134695
0.0107876
0.0106472
0.0126261
0.0134325
0.0294738
0.0316441
0.0168572
0.0137535
0.111739
0.0887911
0.105774
0.0872782
0.067595
0.0367025
0.0338698
0.0493795
0.04417
0.113202
0.0860067
0.0675588
0.0833689
0.0588412
0.0902833
0.0467198
0.013017
0.01306
0.0113182
0.0161732
0.013562
0.0127269
0.0107658
0.0121017
0.011193
0.0109368
0.0308619
0.041587
0.0488391
0.0397257
0.0439413
0.0573233
0.0629478
0.0699739
0.0572655
0.0745168
0.0676323
0.0796049
0.0327994
0.0284916
0.030297
0.034027
0.0314175
0.0437664
0.040434
0.0773864
0.0923316
0.0586375
0.072963
0.0974398
0.0103493
0.0107324
0.0237313
0.0171336
0.0118096
0.0118726
0.0111326
0.0119936
0.0107674
0.0110349
0.027868
0.0299546
0.016324
0.0173371
0.00834731
0.00952193
0.0111189
0.0122175
0.0100737
0.00872751
0.0471139
0.044996
0.0596709
0.0555933
0.0626732
0.0591954
0.151675
0.210384
0.0547389
0.0508713
0.076282
0.0867644
0.0200821
0.0226543
0.0165701
0.0148894
0.0364953
0.0324311
0.0132642
0.0128073
0.0117006
0.0117454
0.011994
0.0113675
0.0139506
0.0158311
0.0117609
0.0124184
0.0114423
0.0111912
0.0120178
0.0105964
0.0126226
0.0124437
0.0104716
0.0119145
0.00905674
0.0105451
0.0129361
0.0119904
0.0135447
0.0135432
0.00934187
0.0102031
0.122954
0.0984218
0.127631
0.0956239
0.0950015
0.0947824
0.0965845
0.0979791
0.0338586
0.0303927
0.0178764
0.0178189
0.0219798
0.0216598
0.0229274
0.0233645
0.0239882
0.02381
0.02216
0.0218248
0.0271377
0.0266929
0.0485837
0.0487833
0.0700351
0.0858826
0.029026
0.0295734
0.0324434
0.0327352
0.034247
0.0346185
0.0311348
0.0834747
0.0820603
0.0806801
0.0793837
0.0578683
0.0330929
0.0336677
0.0368767
0.0362304
0.0316934
0.030402
0.0388018
0.0394518
0.0401995
0.0409701
0.035744
0.0351234
0.0350411
0.0344123
0.0421678
0.041375
0.0970071
0.0956687
0.0408292
0.0388155
0.118816
0.120965
0.176131
0.179422
0.253191
0.196059
0.689888
0.695957
0.582049
0.591126
0.243936
0.247923
0.0788165
0.0798068
0.0428882
0.0423297
0.0680566
0.0630383
0.0869976
0.0913059
0.0743466
0.0801385
0.0819342
0.0768948
0.623469
0.78165
0.0332736
0.0273593
0.0712717
0.0605218
0.0521634
0.0497917
0.0836117
0.0860959
0.0685478
0.0562141
0.0738915
0.0101736
0.0111812
0.010555
0.0101118
0.0650848
0.068453
0.0599381
0.0433417
0.0477666
0.0456712
0.0513888
0.1233
0.0889583
0.0747893
0.0910286
0.100355
0.139928
0.140391
0.0393697
0.0327958
0.0151191
0.0147703
0.0631669
0.0575063
0.0828819
0.0851891
0.0724435
0.0729548
0.0934914
0.081058
0.0491224
0.0482095
0.132223
0.113828
0.105598
0.0904103
0.0125811
0.0123053
0.0104962
0.010379
0.0205585
0.0229667
0.489397
0.48639
0.416198
0.493309
0.067925
0.0798154
0.02582
0.0263192
0.0350784
0.0349737
0.076437
0.0768562
0.0666088
0.0662781
0.566324
0.56107
0.110619
0.11136
0.0231664
0.021766
0.0359299
0.0456178
0.0126008
0.0120423
0.0103929
0.0104867
0.0106883
0.0125562
0.0125218
0.0133813
0.033609
0.0261737
0.0177123
0.0143763
0.0606907
0.0534756
0.0604378
0.0410943
0.0473665
0.0426556
0.0317479
0.0427996
0.0386645
0.0604369
0.0565338
0.0462239
0.0457151
0.010379
0.0104582
0.011246
0.0125055
0.0118881
0.0105212
0.00940654
0.0095976
0.0137094
0.0149896
0.0363271
0.0334445
0.0521513
0.0561582
0.04764
0.0460247
0.0421078
0.0464626
0.0485654
0.0577429
0.0484962
0.0518895
0.0877742
0.119197
0.142048
0.116082
0.138485
0.0301753
0.0247004
0.0271048
0.0419669
0.0370078
0.0553031
0.0520691
0.0585244
0.0785698
0.067786
0.104788
0.0793812
0.0625267
0.0773708
0.0103067
0.0107663
0.0119017
0.0119738
0.0115992
0.0120442
0.0117299
0.00982827
0.00781124
0.0110056
0.0119027
0.0112112
0.0106626
0.0239519
0.0258834
0.0122013
0.0118475
0.00929065
0.00826131
0.04303
0.0410714
0.0515491
0.056399
0.0522939
0.0495186
0.0833191
0.072202
0.128158
0.121127
0.155211
0.213788
0.0896141
0.110032
0.100751
0.0685548
0.0192301
0.0215959
0.0126764
0.013161
0.0117191
0.0115944
0.0123935
0.0134746
0.012464
0.0114648
0.0134997
0.0152002
0.0115952
0.012276
0.0127863
0.012766
0.0126728
0.0125557
0.00922699
0.011043
0.01278
0.0117718
0.0208384
0.020436
0.0682734
0.0845659
0.0754398
0.0765171
0.327756
0.341948
0.370048
0.357968
0.196439
0.18323
0.0269281
0.0289317
0.0209444
0.0213041
0.0188631
0.0195228
0.0194903
0.0191649
0.0227293
0.0223688
0.023634
0.0232819
0.0235718
0.0231635
0.0238565
0.0215407
0.0212042
0.0225041
0.0251978
0.0256778
0.0276825
0.0282051
0.506698
0.510931
0.032859
0.0323539
0.0307184
0.0285394
0.422654
0.450239
0.0395993
0.0354587
0.0279581
0.0274382
0.0281462
0.0282436
0.0336348
0.0339788
0.0361485
0.0366118
0.0543981
0.0555526
0.0677617
0.0573043
0.0437327
0.0395595
0.035461
0.0361325
0.0309226
0.0314506
0.0368009
0.0373015
0.0402151
0.0390773
0.0349144
0.0355303
0.0369805
0.0356771
0.04176
0.042568
0.0446504
0.043803
0.0522029
0.0530069
0.0611264
0.0599746
0.0403639
0.0425589
0.0438282
0.061993
0.0631475
0.0865443
0.0849372
0.219364
0.213459
0.349717
0.361313
0.653964
0.645011
0.669924
0.662249
0.7539
0.748027
0.365242
0.577475
0.165837
0.162984
0.174157
0.179089
0.0528919
0.0519012
0.0624265
0.0589226
0.0790023
0.0828498
0.0523285
0.0533589
0.0771345
0.0831563
0.0853603
0.0895549
0.105892
0.0999521
0.0958528
0.0933784
0.776479
0.764992
0.0758085
0.0878038
0.0578576
0.0537265
0.0496807
0.0596546
0.0524557
0.0726885
0.0654886
0.0778028
0.0978662
0.045391
0.0235311
0.0222646
0.00983389
0.0116882
0.010834
0.00847667
0.0173273
0.0132614
0.0541814
0.0593555
0.0245405
0.0215353
0.0416753
0.0373222
0.0543743
0.0509721
0.0434194
0.0724861
0.0636488
0.0715785
0.1176
0.0678049
0.0580305
0.0690055
0.375107
0.304973
0.0103001
0.0101909
0.0303577
0.0298283
0.0515375
0.0525124
0.0982128
0.0963545
0.0818192
0.0841717
0.075876
0.0744034
0.221676
0.390414
0.0825174
0.0950386
0.0485996
0.0517532
0.0550131
0.0587468
0.114039
0.0994536
0.188334
0.190805
0.0955095
0.111323
0.117073
0.119105
0.0109482
0.0107049
0.0102861
0.0102222
0.0151399
0.0151895
0.0168717
0.0171225
0.465256
0.467955
0.478485
0.0788399
0.0672934
0.0128306
0.0129068
0.0330482
0.0326691
0.0315365
0.031426
0.0572653
0.0573482
0.574275
0.574442
0.0557816
0.0547429
0.0895909
0.0895494
0.189398
0.19933
0.245707
0.34595
0.0185039
0.0173693
0.0330211
0.0425038
0.0105502
0.01306
0.0107978
0.0110863
0.0106442
0.0121648
0.0121907
0.013223
0.0246728
0.0232152
0.170738
0.234418
0.0743457
0.0394173
0.0317976
0.0221008
0.0123069
0.0110083
0.0100409
0.0198044
0.0180791
0.0520499
0.0458809
0.0903948
0.111888
0.118369
0.0396866
0.034204
0.0401742
0.0625255
0.107491
0.12232
0.168089
0.183825
0.227368
0.0323253
0.0262536
0.0458814
0.0506507
0.0540137
0.0478581
0.0636784
0.0496517
0.0466647
0.0965161
0.0560083
0.0160195
0.0121249
0.0145105
0.0309329
0.0430412
0.0116726
0.0118639
0.00906261
0.00758606
0.0121083
0.0116889
0.00800668
0.0101312
0.0115726
0.0105378
0.0112711
0.0120943
0.0199045
0.0187378
0.0444572
0.0417828
0.0355295
0.0339269
0.0393373
0.0431164
0.047165
0.061015
0.0656694
0.0797354
0.0893682
0.311829
0.259819
0.0996531
0.0524738
0.0583467
0.081624
0.0112856
0.0115827
0.0125298
0.0130474
0.0121785
0.013007
0.0128109
0.0115993
0.0128578
0.012865
0.00865414
0.00918659
0.0517134
0.0523617
0.0176277
0.0170052
0.0315641
0.0309808
0.0250323
0.0245998
0.0458984
0.0466096
0.448183
0.36815
0.279782
0.296797
0.13692
0.133469
0.346711
0.0741766
0.0729256
0.0278526
0.0259371
0.0309205
0.031521
0.044563
0.0437378
0.0216175
0.0212933
0.0180931
0.0181644
0.0209457
0.0204137
0.0215959
0.0212155
0.0220135
0.0234829
0.0229422
0.023472
0.0230966
0.0211567
0.0208144
0.0240113
0.0232392
0.0277194
0.0272685
0.0281237
0.0276289
0.125977
0.126944
0.0348068
0.0352798
0.042618
0.0431374
0.0336809
0.0690695
0.0851254
0.0526572
0.0536972
0.0268891
0.0279533
0.0306312
0.0333949
0.0318656
0.0321313
0.027746
0.0286284
0.0335705
0.0329865
0.0355044
0.0359349
0.0353772
0.0889184
0.0875758
0.0703805
0.0719736
0.0402468
0.0409268
0.0408284
0.0398588
0.0348341
0.0375358
0.032073
0.0315754
0.0381272
0.0387207
0.0378176
0.0366315
0.0372963
0.0337327
0.0331664
0.0347417
0.0417602
0.0409752
0.0413862
0.0406185
0.0429757
0.079689
0.0961162
0.070605
0.0693221
0.0488868
0.0541526
0.0457783
0.0447506
0.111497
0.113222
0.492118
0.655674
0.205102
0.26118
0.246887
0.178732
0.175107
0.182779
0.186173
0.248854
0.244433
0.636838
0.418698
0.732019
0.727861
0.571939
0.566843
0.760081
0.702359
0.235274
0.23715
0.196556
0.193216
0.100401
0.102368
0.0477349
0.0486542
0.0407578
0.0415368
0.0718278
0.0678397
0.0729663
0.0705332
0.0530865
0.0518247
0.0644959
0.0696535
0.0635607
0.0591966
0.149545
0.147622
0.0886399
0.0930788
0.0653252
0.0633667
0.0927244
0.0852784
0.163595
0.160101
0.726313
0.509371
0.623742
0.0209316
0.0205113
0.0102845
0.0104806
0.0386957
0.0341304
0.0356852
0.0461343
0.0955174
0.117457
0.0468127
0.0950757
0.0924409
0.0925913
0.0177322
0.0181309
0.0108345
0.00986431
0.00857888
0.0085928
0.0104412
0.011831
0.00834501
0.00826245
0.0202373
0.0150635
0.0709825
0.0966193
0.0329611
0.0297133
0.0234714
0.0208547
0.0600431
0.052982
0.0471577
0.0386467
0.0445344
0.037117
0.0465276
0.0498154
0.0723164
0.0594096
0.0786581
0.00963741
0.00897727
0.010243
0.0771113
0.0577347
0.0475042
0.0144217
0.0147392
0.0237737
0.0219142
0.0231768
0.0231583
0.0838529
0.102432
0.0848696
0.0831664
0.0831108
0.0815135
0.0854612
0.0879874
0.0767723
0.0781141
0.0738704
0.0753218
0.0398144
0.0389591
0.0839811
0.0966108
0.0622006
0.0726432
0.0476061
0.0506663
0.0508493
0.0537103
0.0573276
0.0612666
0.0888386
0.0956875
0.186944
0.187499
0.659899
0.662111
0.149629
0.191823
0.153794
0.195176
0.213592
0.220871
0.144687
0.148983
0.0114771
0.0112099
0.0105125
0.0105378
0.0142986
0.0142148
0.0167882
0.0165486
0.0282001
0.0256035
0.039506
0.0451188
0.0579934
0.0503932
0.0165299
0.0167453
0.0383906
0.0398429
0.0284976
0.028398
0.0352242
0.0354077
0.0658714
0.0660885
0.574301
0.572982
0.0696856
0.070862
0.0589962
0.0585295
0.0898566
0.0897072
0.204921
0.210505
0.0231823
0.0224683
0.0216465
0.0175626
0.0201333
0.0303228
0.0280393
0.0107808
0.0134704
0.0109356
0.127057
0.022023
0.0233033
0.0117371
0.0128841
0.0120547
0.0259367
0.0339845
0.0220589
0.0237767
0.0503403
0.0706362
0.109726
0.0511415
0.0926871
0.219132
0.296368
0.0716487
0.0875556
0.176328
0.0237656
0.022403
0.0597592
0.0670291
0.0557309
0.0499995
0.0628528
0.0696678
0.0996494
0.0803004
0.0815485
0.0160968
0.0122142
0.0291442
0.0399062
0.011771
0.0118409
0.00756015
0.00912331
0.00850807
0.0106918
0.0119655
0.0117722
0.0105923
0.0113789
0.0452421
0.0477507
0.0325067
0.035806
0.049187
0.0514858
0.064953
0.0717548
0.179534
0.13332
0.0474765
0.0117291
0.0113957
0.0120797
0.0126833
0.0117236
0.0114987
0.0119489
0.0104875
0.0437435
0.0442819
0.0147312
0.0143081
0.0184569
0.0183355
0.026043
0.026735
0.0827645
0.0971318
0.0190979
0.0188139
0.0839342
0.0839875
0.0225407
0.0223445
0.0586194
0.058936
0.123108
0.09643
0.315993
0.306618
0.445228
0.312686
0.33598
0.325832
0.0850354
0.08406
0.0273293
0.0254563
0.0283864
0.0264276
0.0492144
0.0482137
0.0255836
0.0251981
0.0233848
0.0230375
0.0185344
0.0182328
0.0203335
0.0205941
0.0179747
0.0183264
0.0218045
0.021425
0.0208407
0.0212486
0.0238483
0.0242244
0.0218844
0.0215053
0.0250082
0.024611
0.0280551
0.0285284
0.0277388
0.0272703
0.384035
0.39183
0.114342
0.115266
0.0382705
0.0387148
0.0311587
0.0289628
0.0295707
0.0273735
0.0853556
0.0693723
0.0928626
0.0954541
0.0535915
0.0623172
0.0274469
0.0264123
0.0321333
0.0294875
0.0255622
0.0263822
0.0286205
0.0287289
0.0295876
0.0286769
0.0326886
0.0316817
0.0324124
0.0330331
0.0344022
0.0333087
0.0348706
0.0352705
0.039141
0.0383746
0.0764648
0.0778816
0.0599538
0.0614794
0.0745323
0.0644094
0.031986
0.0325333
0.0368508
0.037611
0.0328074
0.0322676
0.031099
0.0306092
0.0374593
0.0380038
0.0390692
0.0397976
0.0339332
0.0333624
0.039135
0.0384099
0.0405955
0.0398259
0.0398689
0.0415251
0.0586108
0.059456
0.074602
0.0751361
0.0622906
0.0718426
0.0512866
0.0563841
0.0416608
0.0395708
0.064577
0.0657984
0.0847294
0.0862444
0.14485
0.13912
0.089428
0.0876585
0.130263
0.111361
0.186852
0.182612
0.702703
0.696416
0.239955
0.235057
0.412468
0.406543
0.425418
0.432702
0.228789
0.235343
0.360119
0.355387
0.157335
0.154417
0.1395
0.137029
0.112555
0.115986
0.100473
0.103713
0.0411847
0.0422506
0.0461265
0.0452667
0.0420378
0.0412097
0.0637634
0.0601393
0.0698449
0.0707992
0.057054
0.0556464
0.0659288
0.0711874
0.0555904
0.0544045
0.0661786
0.0648686
0.0560292
0.0544088
0.0816524
0.0757514
0.0757305
0.0711138
0.0871514
0.0945853
0.0939067
0.09211
0.224165
0.324719
0.191063
0.161227
0.506417
0.0201582
0.0225319
0.165645
0.191662
0.0150131
0.0141383
0.106505
0.128153
0.0241334
0.0288536
0.0436396
0.040005
0.0416855
0.0453762
0.0454391
0.0391002
0.071843
0.0616696
0.0888531
0.0917112
0.0494992
0.0471938
0.0102748
0.0102228
0.0172626
0.0147259
0.0089719
0.00905258
0.0125486
0.0124786
0.0118717
0.0121085
0.0111318
0.0086525
0.0087986
0.00917882
0.0345312
0.0516523
0.0147109
0.0211287
0.0729035
0.095485
0.0260983
0.0274306
0.0251578
0.0202087
0.0459981
0.040913
0.038621
0.0322453
0.0306097
0.0329971
0.0371361
0.0422422
0.0945597
0.094042
0.120903
0.135778
0.156588
0.0770976
0.0979238
0.0112984
0.0118392
0.0748175
0.0759586
0.0447718
0.0467696
0.0106007
0.0104557
0.014631
0.0142699
0.0166115
0.0168967
0.219612
0.234908
0.0136806
0.0135985
0.0823134
0.0808597
0.0551134
0.054042
0.0655481
0.0643479
0.16775
0.17194
0.173297
0.169988
0.0816828
0.0805997
0.0794712
0.080845
0.0556822
0.0546491
0.119451
0.105922
0.0555559
0.065605
0.042159
0.0412911
0.14268
0.133488
0.112086
0.109749
0.045333
0.0446183
0.0466263
0.0495934
0.0691254
0.0807511
0.0527574
0.0499151
0.0561569
0.0599932
0.0675058
0.0723754
0.125611
0.107506
0.279812
0.282257
0.0632823
0.0665999
0.147216
0.188911
0.151915
0.194104
0.134401
0.0801003
0.0814277
0.141409
0.14554
0.0106113
0.0108109
0.0187868
0.0173199
0.0148212
0.0146787
0.0183983
0.0181209
0.0224933
0.0227698
0.0233988
0.0214141
0.0233436
0.0213998
0.0310737
0.0349129
0.0594215
0.0512141
0.354344
0.528227
0.0938872
0.118062
0.0170271
0.0172332
0.0424186
0.0439129
0.0220709
0.0218955
0.0404559
0.0408815
0.032349
0.0320803
0.0501331
0.0501163
0.112547
0.113832
0.110051
0.110374
0.213024
0.21677
0.0609412
0.0618395
0.0675
0.0670117
0.109941
0.109896
0.446382
0.373172
0.184138
0.0248812
0.0268204
0.0188071
0.0180024
0.0120193
0.0114312
0.0133663
0.0132528
0.0127653
0.0552114
0.0457783
0.0437421
0.0325544
0.0270797
0.0675573
0.379504
0.321475
0.163612
0.140117
0.132115
0.1605
0.0349891
0.0373509
0.04292
0.039751
0.0912469
0.0523174
0.0106564
0.0106249
0.0199421
0.018576
0.0222063
0.0214271
0.00766875
0.00953644
0.0115956
0.011883
0.0104237
0.0082429
0.0460992
0.0490529
0.0373824
0.0391686
0.0807419
0.0965615
0.0118773
0.0115174
0.0397335
0.0392087
0.0137178
0.0139198
0.0147137
0.01453
0.0200074
0.0197122
0.020464
0.020034
0.028731
0.0284246
0.512113
0.445481
0.25786
0.263562
0.0254458
0.0258753
0.0185376
0.0266692
0.0279594
0.0680503
0.0844257
0.0583692
0.0586663
0.0335482
0.033451
0.0579682
0.0501362
0.0685358
0.0865695
0.12129
0.0968866
0.12522
0.0960049
0.441968
0.437301
0.0727084
0.073719
0.0466819
0.0459608
0.026817
0.0249856
0.0303326
0.0430069
0.0438882
0.0418087
0.0426477
0.0282871
0.0278529
0.0243297
0.0240388
0.0186902
0.0188599
0.0192181
0.018908
0.0196126
0.0199283
0.0196089
0.0193426
0.0220078
0.0217173
0.0216621
0.021314
0.0241184
0.0237635
0.0222264
0.021862
0.0239739
0.0236021
0.0255579
0.0251531
0.0254885
0.0250663
0.0266632
0.0271686
0.0263948
0.0259717
0.0282168
0.355265
0.349832
0.229374
0.228423
0.127882
0.128839
0.0400878
0.0445249
0.0433172
0.0316454
0.0294083
0.0299349
0.027749
0.0439306
0.0507059
0.0854283
0.0783629
0.116488
0.0990203
0.0775794
0.069312
0.0476065
0.0485844
0.0361567
0.0403922
0.0312188
0.0340438
0.030054
0.0327582
0.0307429
0.0309575
0.0291001
0.0292194
0.0291038
0.0282075
0.0321325
0.0311524
0.0333507
0.032173
0.0316511
0.0347669
0.0341646
0.039326
0.0400571
0.065539
0.0668087
0.0482669
0.0492418
0.0422883
0.0437543
0.0655113
0.075825
0.0504466
0.0497573
0.0339905
0.0333915
0.0317405
0.0312237
0.0325684
0.0315948
0.0357919
0.0353287
0.0345017
0.0376648
0.0383597
0.0370416
0.0363834
0.0343154
0.0345201
0.0376848
0.0369396
0.0423144
0.0431231
0.097106
0.080491
0.0643525
0.0644681
0.0943058
0.0929568
0.0528202
0.0569596
0.0579864
0.046975
0.0530939
0.0478867
0.0602339
0.0614302
0.0502832
0.049291
0.0746661
0.0732309
0.0640929
0.0625276
0.105717
0.10769
0.0985375
0.0984374
0.0955416
0.0799702
0.0784943
0.0957236
0.0938463
0.133516
0.11396
0.225725
0.232422
0.22956
0.222029
0.401373
0.395935
0.629693
0.623488
0.286115
0.281901
0.471476
0.290809
0.093175
0.0914252
0.132068
0.12946
0.190006
0.24025
0.206433
0.212305
0.126609
0.130366
0.103987
0.10725
0.0784264
0.0674901
0.0504722
0.0514562
0.0350998
0.0350747
0.0663874
0.0702922
0.0638287
0.0660718
0.0703731
0.0465591
0.0474673
0.0673288
0.0726707
0.0503222
0.0513152
0.0604142
0.0616368
0.0739135
0.0730909
0.0738421
0.068933
0.081852
0.0894856
0.101878
0.107927
0.106673
0.0994367
0.155102
0.158453
0.179454
0.150728
0.185975
0.156982
0.394696
0.386675
0.0161561
0.0141759
0.0150906
0.11296
0.140478
0.0183413
0.0196209
0.0166474
0.0202616
0.036986
0.029352
0.0417967
0.036465
0.100784
0.104075
0.0925389
0.108479
0.0833315
0.0322527
0.0285817
0.0283809
0.0151395
0.0149291
0.0197461
0.0209336
0.0124356
0.0134111
0.0235847
0.0222144
0.0133378
0.0126606
0.0106317
0.00939897
0.0105417
0.0108189
0.0107716
0.0108842
0.012619
0.0118977
0.0121803
0.0120111
0.0114587
0.0085804
0.00858427
0.00863319
0.0200138
0.0251324
0.0231811
0.0262109
0.025628
0.0205242
0.0150092
0.0368663
0.0393595
0.192503
0.132113
0.0352175
0.038916
0.0239463
0.0228749
0.0218652
0.0277418
0.0262417
0.0537855
0.0621617
0.0266971
0.028713
0.0530019
0.0573114
0.0908495
0.154005
0.403571
0.324181
0.0917508
0.0198923
0.0141507
0.034801
0.0467318
0.088456
0.0879248
0.0391789
0.0327925
0.0366582
0.0135346
0.0140948
0.0125843
0.0119818
0.0149952
0.0459523
0.0468549
0.407485
0.40153
0.0138402
0.0140216
0.0253732
0.0248538
0.0366733
0.0395482
0.0529835
0.0547452
0.0701049
0.07138
0.0585925
0.0596963
0.113158
0.111119
0.198603
0.203347
0.0941059
0.0969376
0.101667
0.099914
0.0884129
0.0869312
0.0656258
0.0669123
0.0578188
0.0589161
0.0569897
0.058088
0.169266
0.214337
0.382041
0.0721542
0.0611187
0.0394231
0.0447399
0.0475243
0.486706
0.479049
0.11448
0.0462509
0.0454903
0.0518021
0.0546853
0.0542965
0.0530861
0.101021
0.115889
0.0776499
0.0834518
0.090306
0.086954
0.154504
0.152579
0.656155
0.487018
0.43767
0.456923
0.0598352
0.0567869
0.127801
0.125726
0.131972
0.129901
0.09035
0.0929246
0.128028
0.125814
0.0109808
0.0111764
0.012027
0.0117523
0.0937316
0.0986638