# Residuals   
# Time        	p             	Ux            	Uy            
0.0002        	1.000000e+00	9.999999e-01	9.999823e-01
0.0004        	5.061910e-03	8.205926e-01	5.718930e-01
0.0006        	4.437348e-03	4.623146e-01	2.404609e-01
0.0008        	8.723815e-02	5.079319e-02	4.591553e-02
0.001         	1.128375e-02	3.022762e-01	2.245124e-01
0.0012        	8.356453e-03	3.253129e-01	2.750582e-01
0.0014        	7.696639e-02	7.798730e-02	6.861869e-02
0.0016        	1.104745e-02	3.132705e-01	1.590319e-01
0.0018        	7.631178e-03	1.771888e-01	1.018231e-01
0.002         	7.214499e-02	3.786206e-02	3.442974e-02
0.0022        	1.611886e-02	1.282651e-01	7.992278e-02
0.0024        	1.161676e-02	9.942499e-02	7.365871e-02
0.0026        	4.325280e-02	3.390513e-02	2.595350e-02
0.0028        	1.262060e-02	8.816339e-02	4.648432e-02
0.003         	8.180788e-03	5.549500e-02	3.754029e-02
0.0032        	3.022196e-02	1.934931e-02	1.753733e-02
0.0034        	2.964488e-02	4.334750e-02	2.556935e-02
0.0036        	2.129726e-02	3.016010e-02	2.384809e-02
0.0038        	2.364778e-02	1.363823e-02	9.989289e-03
0.004         	1.058664e-02	2.665067e-02	1.436463e-02
0.0042        	7.043065e-03	1.692350e-02	1.362130e-02
0.0044        	1.239985e-02	8.608603e-03	8.086282e-03
0.0046        	4.129426e-02	1.399174e-02	9.283811e-03
0.0048        	2.631578e-02	9.041195e-03	8.670942e-03
0.005         	9.466554e-03	5.868044e-03	4.355496e-03
0.0052        	6.472777e-03	8.390264e-03	4.805042e-03
0.0054        	4.599774e-03	5.386100e-03	5.076173e-03
0.0056        	5.402115e-03	3.959112e-03	4.011652e-03
0.0058        	6.788310e-03	4.498815e-03	4.201788e-03
0.006         	5.063331e-03	3.038748e-03	3.741681e-03
0.0062        	3.872090e-03	2.757566e-03	2.516011e-03
0.0064        	3.060931e-03	2.764362e-03	2.200842e-03
0.0066        	2.365792e-03	1.974673e-03	2.288050e-03
0.0068        	2.268468e-03	1.976958e-03	2.281463e-03
0.007         	2.180506e-03	1.732473e-03	2.318747e-03
0.0072        	1.814535e-03	1.489557e-03	2.129651e-03
0.0074        	1.568868e-03	1.492152e-03	1.767410e-03
0.0076        	1.313881e-03	1.241912e-03	1.546131e-03
0.0078        	1.105506e-03	1.151529e-03	1.540159e-03
0.008         	1.006770e-03	1.190229e-03	1.566460e-03
0.0082        	9.054976e-04	1.032758e-03	1.557910e-03
0.0084        	8.174302e-04	1.017034e-03	1.475748e-03
0.0086        	7.351828e-04	9.768825e-04	1.359030e-03
0.0088        	6.302448e-04	8.791744e-04	1.259214e-03
0.009         	5.898221e-04	8.720583e-04	1.220794e-03
0.0092        	5.400802e-04	8.528731e-04	1.203038e-03
0.0094        	4.900467e-04	8.187125e-04	1.182310e-03
0.0096        	4.694680e-04	7.981707e-04	1.143051e-03
0.0098        	4.304108e-04	7.626902e-04	1.088184e-03
0.01          	3.925798e-04	7.230530e-04	1.043931e-03
0.0102        	3.809571e-04	7.060574e-04	1.008105e-03
0.0104        	3.581947e-04	6.915889e-04	9.802494e-04
0.0106        	3.401318e-04	6.784789e-04	9.512127e-04
0.0108        	3.298993e-04	6.646652e-04	9.194198e-04
0.011         	3.059485e-04	6.392315e-04	8.928898e-04
0.0112        	2.980821e-04	6.137046e-04	8.673306e-04
0.0114        	2.921094e-04	5.950664e-04	8.411261e-04
0.0116        	2.712091e-04	5.804708e-04	8.171176e-04
0.0118        	2.637088e-04	5.674376e-04	7.932918e-04
0.012         	2.572856e-04	5.547862e-04	7.693504e-04
0.0122        	2.414394e-04	5.416286e-04	7.462356e-04
0.0124        	2.320743e-04	5.277439e-04	7.237763e-04
0.0126        	2.286113e-04	5.127259e-04	7.041686e-04
0.0128        	2.196482e-04	4.974442e-04	6.873424e-04
0.013         	2.109025e-04	4.840740e-04	6.702436e-04
0.0132        	2.093675e-04	4.729911e-04	6.528670e-04
0.0134        	2.000318e-04	4.617410e-04	6.345113e-04
0.0136        	1.915207e-04	4.505442e-04	6.163266e-04
0.0138        	1.877569e-04	4.401893e-04	6.006359e-04
0.014         	1.818573e-04	4.275214e-04	5.846281e-04
0.0142        	1.758181e-04	4.160007e-04	5.702493e-04
0.0144        	1.720709e-04	4.069918e-04	5.566291e-04
0.0146        	1.660694e-04	3.978196e-04	5.436948e-04
0.0148        	1.607784e-04	3.887313e-04	5.303523e-04
0.015         	1.571047e-04	3.803119e-04	5.177830e-04
0.0152        	1.522990e-04	3.697514e-04	5.034932e-04
0.0154        	1.493439e-04	3.597737e-04	4.906931e-04
0.0156        	1.459408e-04	3.523147e-04	4.796829e-04
0.0158        	1.394192e-04	3.445653e-04	4.697134e-04
0.016         	1.383213e-04	3.375000e-04	4.597789e-04
0.0162        	1.324218e-04	3.296583e-04	4.481887e-04
0.0164        	1.289815e-04	3.209633e-04	4.363468e-04
0.0166        	1.268128e-04	3.141434e-04	4.266289e-04
0.0168        	1.247779e-04	3.075837e-04	4.177453e-04
0.017         	1.195586e-04	2.993965e-04	4.086575e-04
0.0172        	1.169825e-04	2.933457e-04	4.004356e-04
0.0174        	1.128042e-04	2.866607e-04	3.909505e-04
0.0176        	1.105789e-04	2.809502e-04	3.826314e-04
0.0178        	1.071074e-04	2.740409e-04	3.728442e-04
0.018         	1.051383e-04	2.685535e-04	3.652619e-04
0.0182        	1.022236e-04	2.618276e-04	3.575832e-04
0.0184        	1.004175e-04	2.568551e-04	3.508394e-04
0.0186        	9.638686e-05	2.513657e-04	3.439638e-04
0.0188        	9.497078e-05	2.465721e-04	3.373025e-04
0.019         	9.204924e-05	2.408092e-04	3.286642e-04
0.0192        	9.042570e-05	2.359892e-04	3.218779e-04
0.0194        	8.814012e-05	2.295040e-04	3.143360e-04
0.0196        	8.632336e-05	2.252893e-04	3.086147e-04
0.0198        	8.310159e-05	2.207216e-04	3.034633e-04
0.02          	8.229212e-05	2.167736e-04	2.982311e-04
0.0202        	7.923025e-05	2.123441e-04	2.921267e-04
0.0204        	7.736620e-05	2.076725e-04	2.852772e-04
0.0206        	7.629218e-05	2.037253e-04	2.797377e-04
0.0208        	7.458398e-05	1.984302e-04	2.734208e-04
0.021         	7.315846e-05	1.949491e-04	2.688120e-04
0.0212        	7.044785e-05	1.910309e-04	2.643346e-04
0.0214        	6.974564e-05	1.876856e-04	2.599777e-04
0.0216        	6.708275e-05	1.837518e-04	2.544621e-04
0.0218        	6.593354e-05	1.803909e-04	2.498001e-04
0.022         	6.477547e-05	1.757908e-04	2.438787e-04
0.0222        	6.357710e-05	1.727000e-04	2.397965e-04
0.0224        	6.116549e-05	1.690043e-04	2.356038e-04
0.0226        	6.031327e-05	1.661871e-04	2.319563e-04
0.0228        	5.838022e-05	1.629859e-04	2.278269e-04
0.023         	5.746474e-05	1.601963e-04	2.240294e-04
0.0232        	5.592957e-05	1.566869e-04	2.188137e-04
0.0234        	5.511403e-05	1.538767e-04	2.150439e-04
0.0236        	5.382526e-05	1.499786e-04	2.106763e-04
0.0238        	5.264916e-05	1.475409e-04	2.075394e-04
0.024         	5.084545e-05	1.448152e-04	2.045188e-04
0.0242        	5.045255e-05	1.424952e-04	2.015281e-04
0.0244        	4.865911e-05	1.397971e-04	1.976814e-04
0.0246        	4.766668e-05	1.369668e-04	1.935432e-04
0.0248        	4.705063e-05	1.346683e-04	1.904423e-04
0.025         	4.606187e-05	1.314753e-04	1.867436e-04
0.0252        	4.521685e-05	1.293886e-04	1.841230e-04
0.0254        	4.361661e-05	1.269068e-04	1.813148e-04
0.0256        	4.317816e-05	1.248946e-04	1.787450e-04
0.0258        	4.165787e-05	1.224696e-04	1.753495e-04
0.026         	4.099062e-05	1.204655e-04	1.726373e-04
0.0262        	4.027980e-05	1.177615e-04	1.690672e-04
0.0264        	3.960186e-05	1.158901e-04	1.666826e-04
0.0266        	3.827834e-05	1.135152e-04	1.639871e-04
0.0268        	3.767347e-05	1.117911e-04	1.618177e-04
0.027         	3.653987e-05	1.097386e-04	1.592210e-04
0.0272        	3.601067e-05	1.080355e-04	1.569679e-04
0.0274        	3.506166e-05	1.058715e-04	1.538791e-04
0.0276        	3.458726e-05	1.041826e-04	1.516554e-04
0.0278        	3.383910e-05	1.018805e-04	1.488446e-04
0.028         	3.314815e-05	1.003451e-04	1.469251e-04
0.0282        	3.276239e-05	9.883749e-05	1.451179e-04
0.0284        	3.154210e-05	9.692968e-05	1.427633e-04
0.0286        	3.102247e-05	9.542046e-05	1.407994e-04
0.0288        	3.033352e-05	9.341647e-05	1.380342e-04
0.029         	2.980120e-05	9.201687e-05	1.361745e-04
0.0292        	2.941533e-05	9.065936e-05	1.344611e-04
0.0294        	2.840428e-05	8.889991e-05	1.322714e-04
0.0296        	2.793560e-05	8.755731e-05	1.305829e-04
0.0298        	2.722608e-05	8.581487e-05	1.282580e-04
0.03          	2.670722e-05	8.455129e-05	1.265932e-04
0.0302        	2.635358e-05	8.330340e-05	1.249786e-04
0.0304        	2.562103e-05	8.165276e-05	1.228417e-04
0.0306        	2.514656e-05	8.045858e-05	1.213291e-04
0.0308        	2.451821e-05	7.894357e-05	1.194154e-04
0.031         	2.405023e-05	7.784055e-05	1.179869e-04
0.0312        	2.382953e-05	7.673423e-05	1.165746e-04
0.0314        	2.313153e-05	7.532332e-05	1.146075e-04
0.0316        	2.272342e-05	7.392250e-05	1.127036e-04
0.0318        	2.222738e-05	7.289600e-05	1.113664e-04
0.032         	2.194006e-05	7.189367e-05	1.101092e-04
0.0322        	2.131945e-05	7.057339e-05	1.085151e-04
0.0324        	2.101167e-05	6.958228e-05	1.072595e-04
0.0326        	2.048278e-05	6.832862e-05	1.055373e-04
0.0328        	2.014655e-05	6.737562e-05	1.042584e-04
0.033         	1.973533e-05	6.617887e-05	1.026212e-04
0.0332        	1.940521e-05	6.529650e-05	1.014719e-04
0.0334        	1.922475e-05	6.440923e-05	1.003567e-04
0.0336        	1.861673e-05	6.326485e-05	9.879163e-05
0.0338        	1.829763e-05	6.213341e-05	9.726702e-05
0.034         	1.787111e-05	6.131811e-05	9.618663e-05
0.0342        	1.763362e-05	6.053053e-05	9.516574e-05
0.0344        	1.716550e-05	5.954488e-05	9.391651e-05
0.0346        	1.696424e-05	5.874583e-05	9.288676e-05
0.0348        	1.658125e-05	5.772865e-05	9.143617e-05
0.035         	1.634382e-05	5.694353e-05	9.037178e-05
0.0352        	1.605488e-05	5.592404e-05	8.898218e-05
0.0354        	1.573514e-05	5.521841e-05	8.805687e-05
0.0356        	1.557496e-05	5.452131e-05	8.717541e-05
0.0358        	1.506122e-05	5.366632e-05	8.603430e-05
0.036         	1.474852e-05	5.280848e-05	8.483860e-05
0.0362        	1.450468e-05	5.213733e-05	8.391823e-05
0.0364        	1.439353e-05	5.146337e-05	8.300343e-05
0.0366        	1.411286e-05	5.058416e-05	8.179015e-05
0.0368        	1.387617e-05	4.993756e-05	8.094723e-05
0.037         	1.348711e-05	4.914048e-05	7.987537e-05
0.0372        	1.325059e-05	4.853387e-05	7.906683e-05
0.0374        	1.312725e-05	4.792924e-05	7.825210e-05
0.0376        	1.275686e-05	4.717268e-05	7.714533e-05
0.0378        	1.260055e-05	4.657573e-05	7.633528e-05
0.038         	1.238161e-05	4.581594e-05	7.529167e-05
0.0382        	1.214889e-05	4.526884e-05	7.456204e-05
0.0384        	1.202440e-05	4.472813e-05	7.385483e-05
0.0386        	1.165623e-05	4.406694e-05	7.292734e-05
0.0388        	1.143687e-05	4.341370e-05	7.199110e-05
0.039         	1.123323e-05	4.290208e-05	7.128286e-05
0.0392        	1.113348e-05	4.239381e-05	7.058541e-05
0.0394        	1.088461e-05	4.174937e-05	6.967006e-05
0.0396        	1.073544e-05	4.124906e-05	6.899838e-05
0.0398        	1.048445e-05	4.063213e-05	6.813458e-05
0.04          	1.030398e-05	4.015819e-05	6.748900e-05
0.0402        	1.020457e-05	3.968686e-05	6.684376e-05
0.0404        	9.954623e-06	3.909976e-05	6.598569e-05
0.0406        	9.812545e-06	3.863897e-05	6.535153e-05
0.0408        	9.624313e-06	3.807135e-05	6.455005e-05
0.041         	9.450518e-06	3.764637e-05	6.396759e-05
0.0412        	9.376132e-06	3.722479e-05	6.339593e-05
0.0414        	9.103563e-06	3.671799e-05	6.265197e-05
0.0416        	8.992965e-06	3.629363e-05	6.205452e-05
0.0418        	8.930883e-06	3.586078e-05	6.142140e-05
0.042         	8.786378e-06	3.530034e-05	6.058355e-05
0.0422        	8.619925e-06	3.489949e-05	6.003539e-05
0.0424        	8.481653e-06	3.451875e-05	5.952596e-05
0.0426        	8.418742e-06	3.413739e-05	5.901950e-05
0.0428        	8.332024e-06	3.374519e-05	5.847314e-05
0.043         	8.048393e-06	3.325573e-05	5.769386e-05
0.0432        	7.966592e-06	3.286437e-05	5.712733e-05
0.0434        	7.865659e-06	3.247363e-05	5.658730e-05
0.0436        	7.755153e-06	3.210931e-05	5.608751e-05
0.0438        	7.647105e-06	3.176405e-05	5.561124e-05
0.044         	7.545701e-06	3.141216e-05	5.511281e-05
0.0442        	7.294543e-06	3.098711e-05	5.441836e-05
0.0444        	7.180273e-06	3.064340e-05	5.391245e-05
0.0446        	7.072265e-06	3.030471e-05	5.342091e-05
0.0448        	6.991488e-06	2.997191e-05	5.294485e-05
0.045         	6.903422e-06	2.964766e-05	5.248251e-05
0.0452        	6.803737e-06	2.932422e-05	5.201470e-05
0.0454        	6.707617e-06	2.899611e-05	5.152543e-05
0.0456        	6.622445e-06	2.866206e-05	5.101598e-05
0.0458        	6.542984e-06	2.832214e-05	5.050453e-05
0.046         	6.445549e-06	2.798327e-05	5.002062e-05
0.0462        	6.293431e-06	2.767540e-05	4.959487e-05
0.0464        	6.167517e-06	2.740707e-05	4.921252e-05
0.0466        	6.109244e-06	2.714236e-05	4.883251e-05
0.0468        	6.046372e-06	2.687028e-05	4.842601e-05
0.047         	5.979836e-06	2.659072e-05	4.797621e-05
0.0472        	5.932989e-06	2.630544e-05	4.749413e-05
0.0474        	5.868394e-06	2.601723e-05	4.701415e-05
0.0476        	5.772420e-06	2.573263e-05	4.656759e-05
0.0478        	5.659730e-06	2.545672e-05	4.616631e-05
0.048         	5.551247e-06	2.519421e-05	4.580671e-05
0.0482        	5.468608e-06	2.495000e-05	4.546589e-05
0.0484        	5.402819e-06	2.471447e-05	4.512212e-05
0.0486        	5.320326e-06	2.447828e-05	4.476295e-05
0.0488        	5.238988e-06	2.423515e-05	4.438453e-05
0.049         	5.178173e-06	2.398304e-05	4.399294e-05
0.0492        	5.118062e-06	2.372831e-05	4.360128e-05
0.0494        	5.030938e-06	2.348375e-05	4.322547e-05
0.0496        	4.926714e-06	2.325708e-05	4.287579e-05
0.0498        	4.836784e-06	2.304366e-05	4.254425e-05
0.05          	4.766639e-06	2.283578e-05	4.221477e-05
0.0502        	4.693701e-06	2.262859e-05	4.187651e-05
0.0504        	4.627379e-06	2.241836e-05	4.152818e-05
0.0506        	4.574852e-06	2.220264e-05	4.117859e-05
0.0508        	4.518838e-06	2.198296e-05	4.084080e-05
0.051         	4.436575e-06	2.176754e-05	4.052421e-05
0.0512        	4.342164e-06	2.156777e-05	4.023019e-05
0.0514        	4.279043e-06	2.138056e-05	3.994670e-05
0.0516        	4.235099e-06	2.119654e-05	3.965806e-05
0.0518        	4.180670e-06	2.101247e-05	3.935383e-05
0.052         	4.132319e-06	2.082693e-05	3.903319e-05
0.0522        	4.098853e-06	2.063855e-05	3.870725e-05
0.0524        	4.050403e-06	2.044820e-05	3.839244e-05
0.0526        	3.974993e-06	2.025942e-05	3.809896e-05
0.0528        	3.886677e-06	2.008192e-05	3.783163e-05
0.053         	3.831254e-06	1.991644e-05	3.757913e-05
0.0532        	3.799845e-06	1.975511e-05	3.732639e-05
0.0534        	3.751786e-06	1.959474e-05	3.706394e-05
0.0536        	3.699633e-06	1.943379e-05	3.678785e-05
0.0538        	3.671284e-06	1.927007e-05	3.650164e-05
0.054         	3.646394e-06	1.910268e-05	3.621561e-05
0.0542        	3.595577e-06	1.893466e-05	3.594230e-05
0.0544        	3.517987e-06	1.877362e-05	3.569077e-05
0.0546        	3.453122e-06	1.862453e-05	3.545792e-05
0.0548        	3.423299e-06	1.848096e-05	3.522902e-05
0.055         	3.386333e-06	1.833935e-05	3.499472e-05
0.0552        	3.335999e-06	1.819853e-05	3.475128e-05
0.0554        	3.299406e-06	1.805672e-05	3.450052e-05
0.0556        	3.274940e-06	1.791204e-05	3.424859e-05
0.0558        	3.235104e-06	1.776523e-05	3.400306e-05
0.056         	3.171862e-06	1.762129e-05	3.377001e-05
0.0562        	3.111332e-06	1.748460e-05	3.355067e-05
0.0564        	3.075274e-06	1.735386e-05	3.333776e-05
0.0566        	3.043659e-06	1.722654e-05	3.312363e-05
0.0568        	2.999704e-06	1.710143e-05	3.290493e-05
0.057         	2.963063e-06	1.697658e-05	3.268230e-05
0.0572        	2.940273e-06	1.684914e-05	3.245951e-05
0.0574        	2.908771e-06	1.671880e-05	3.224157e-05
0.0576        	2.853643e-06	1.659071e-05	3.203372e-05
0.0578        	2.799345e-06	1.646935e-05	3.183717e-05
0.058         	2.769932e-06	1.635199e-05	3.164384e-05
0.0582        	2.745108e-06	1.623677e-05	3.144662e-05
0.0584        	2.711318e-06	1.612361e-05	3.124327e-05
0.0586        	2.684399e-06	1.601158e-05	3.103626e-05
0.0588        	2.664293e-06	1.589815e-05	3.083103e-05
0.059         	2.631165e-06	1.578229e-05	3.063257e-05
0.0592        	2.581301e-06	1.566723e-05	3.044390e-05
0.0594        	2.534352e-06	1.555718e-05	3.026505e-05
0.0596        	2.510092e-06	1.545112e-05	3.008981e-05
0.0598        	2.490554e-06	1.534729e-05	2.991283e-05
0.06          	2.460276e-06	1.524525e-05	2.973237e-05
0.0602        	2.434273e-06	1.514383e-05	2.954954e-05
0.0604        	2.419819e-06	1.504060e-05	2.936649e-05
0.0606        	2.397002e-06	1.493486e-05	2.918556e-05
0.0608        	2.354453e-06	1.483066e-05	2.901092e-05
0.061         	2.309995e-06	1.473190e-05	2.884574e-05
0.0612        	2.287412e-06	1.463650e-05	2.868410e-05
0.0614        	2.270853e-06	1.454290e-05	2.852041e-05
0.0616        	2.244652e-06	1.445080e-05	2.835359e-05
0.0618        	2.221546e-06	1.435917e-05	2.818566e-05
0.062         	2.207372e-06	1.426574e-05	2.801927e-05
0.0622        	2.185111e-06	1.416983e-05	2.785595e-05
0.0624        	2.146761e-06	1.407491e-05	2.769775e-05
0.0626        	2.107763e-06	1.398419e-05	2.754580e-05
0.0628        	2.085727e-06	1.389689e-05	2.739658e-05
0.063         	2.070533e-06	1.381163e-05	2.724652e-05
0.0632        	2.047478e-06	1.372791e-05	2.709527e-05
0.0634        	2.025301e-06	1.364462e-05	2.694460e-05
0.0636        	2.011873e-06	1.355964e-05	2.679579e-05
0.0638        	1.993482e-06	1.347240e-05	2.664831e-05
0.064         	1.959343e-06	1.338660e-05	2.650366e-05
0.0642        	1.925361e-06	1.330525e-05	2.636484e-05
0.0644        	1.908436e-06	1.322634e-05	2.622755e-05
0.0646        	1.895360e-06	1.314881e-05	2.608809e-05
0.0648        	1.875532e-06	1.307229e-05	2.594689e-05
0.065         	1.859116e-06	1.299586e-05	2.580673e-05
0.0652        	1.847983e-06	1.291784e-05	2.566964e-05
0.0654        	1.826952e-06	1.283839e-05	2.553501e-05
0.0656        	1.793674e-06	1.276054e-05	2.540334e-05
0.0658        	1.764725e-06	1.268593e-05	2.527513e-05
0.066         	1.749563e-06	1.261361e-05	2.514767e-05
0.0662        	1.737459e-06	1.254278e-05	2.501928e-05
0.0664        	1.719338e-06	1.247290e-05	2.489131e-05
0.0666        	1.702973e-06	1.240286e-05	2.476633e-05
0.0668        	1.692350e-06	1.233122e-05	2.464448e-05
0.067         	1.674900e-06	1.225869e-05	2.452284e-05
0.0672        	1.644873e-06	1.218886e-05	2.440203e-05
0.0674        	1.621779e-06	1.212216e-05	2.428453e-05
0.0676        	1.611428e-06	1.205697e-05	2.416639e-05
0.0678        	1.600288e-06	1.199279e-05	2.404606e-05
0.068         	1.585166e-06	1.192923e-05	2.392570e-05
0.0682        	1.574760e-06	1.186530e-05	2.380878e-05
0.0684        	1.564407e-06	1.179989e-05	2.369566e-05
0.0686        	1.542053e-06	1.173394e-05	2.358356e-05
0.0688        	1.513994e-06	1.167010e-05	2.347291e-05
0.069         	1.495490e-06	1.160846e-05	2.336336e-05
0.0692        	1.485315e-06	1.154819e-05	2.325276e-05
0.0694        	1.474173e-06	1.148884e-05	2.314156e-05
0.0696        	1.460351e-06	1.142975e-05	2.303307e-05
0.0698        	1.450181e-06	1.136976e-05	2.293018e-05
0.07          	1.440378e-06	1.130828e-05	2.283039e-05
0.0702        	1.419201e-06	1.124797e-05	2.272841e-05
0.0704        	1.394828e-06	1.119124e-05	2.262681e-05
0.0706        	1.384563e-06	1.113609e-05	2.252575e-05
0.0708        	1.378493e-06	1.108203e-05	2.242235e-05
0.071         	1.367545e-06	1.102863e-05	2.231770e-05
0.0712        	1.357481e-06	1.097496e-05	2.221579e-05
0.0714        	1.351875e-06	1.091986e-05	2.211957e-05
0.0716        	1.338856e-06	1.086355e-05	2.202557e-05
0.0718        	1.313553e-06	1.080842e-05	2.193040e-05
0.072         	1.293814e-06	1.075560e-05	2.183585e-05
0.0722        	1.283921e-06	1.070415e-05	2.174010e-05
0.0724        	1.276020e-06	1.065350e-05	2.164250e-05
0.0726        	1.265670e-06	1.060296e-05	2.154595e-05
0.0728        	1.256663e-06	1.055136e-05	2.145529e-05
0.073         	1.250015e-06	1.049782e-05	2.137136e-05
0.0732        	1.237145e-06	1.044402e-05	2.128767e-05
0.0734        	1.212886e-06	1.039495e-05	2.119944e-05
0.0736        	1.199216e-06	1.034807e-05	2.111154e-05
0.0738        	1.195455e-06	1.030231e-05	2.102253e-05
0.074         	1.188849e-06	1.025744e-05	2.093221e-05
0.0742        	1.178467e-06	1.021268e-05	2.084369e-05
0.0744        	1.172759e-06	1.016686e-05	2.076067e-05
0.0746        	1.166646e-06	1.011917e-05	2.068174e-05
0.0748        	1.148278e-06	1.007130e-05	2.060076e-05
0.075         	1.126680e-06	1.002532e-05	2.051804e-05
0.0752        	1.114008e-06	9.980759e-06	2.043417e-05
0.0754        	1.106700e-06	9.936942e-06	2.034822e-05
0.0756        	1.101031e-06	9.893051e-06	2.026272e-05
0.0758        	1.095040e-06	9.848037e-06	2.018272e-05
0.076         	1.085224e-06	9.801855e-06	2.010950e-05
0.0762        	1.068776e-06	9.756334e-06	2.003747e-05
0.0764        	1.050829e-06	9.713742e-06	1.996269e-05
0.0766        	1.039724e-06	9.673581e-06	1.988563e-05
0.0768        	1.033968e-06	9.634466e-06	1.980746e-05
0.077         	1.028170e-06	9.595802e-06	1.972934e-05
0.0772        	1.021597e-06	9.556627e-06	1.965405e-05
0.0774        	1.014791e-06	9.516135e-06	1.958301e-05
0.0776        	1.002726e-06	9.474804e-06	1.951347e-05
0.0778        	9.857344e-07	9.434098e-06	1.944239e-05
0.078         	1.289853e-06	9.395754e-06	1.937145e-05
0.0782        	1.189849e-06	9.357945e-06	1.929858e-05
0.0784        	1.114179e-06	9.319726e-06	1.922299e-05
0.0786        	1.070149e-06	9.278901e-06	1.914939e-05
0.0788        	1.029509e-06	9.235736e-06	1.908248e-05
0.079         	9.860388e-07	9.195159e-06	1.901684e-05
0.0792        	1.274231e-06	9.158769e-06	1.894938e-05
0.0794        	1.163993e-06	9.123818e-06	1.888390e-05
0.0796        	1.081607e-06	9.090446e-06	1.881556e-05
0.0798        	1.036249e-06	9.058310e-06	1.874421e-05
0.08          	9.986786e-07	9.025602e-06	1.867653e-05
0.0802        	1.274691e-06	8.990565e-06	1.861086e-05
0.0804        	1.156464e-06	8.953472e-06	1.855732e-05
0.0806        	1.074491e-06	8.915052e-06	1.850079e-05
0.0808        	1.008238e-06	8.877445e-06	1.843691e-05
0.081         	9.544276e-07	8.842630e-06	1.836883e-05
0.0812        	1.226532e-06	8.809458e-06	1.830622e-05
0.0814        	1.109234e-06	8.778784e-06	1.823826e-05
0.0816        	1.023914e-06	8.748559e-06	1.816996e-05
0.0818        	9.735213e-07	8.716436e-06	1.810693e-05
0.082         	1.238352e-06	8.684397e-06	1.804594e-05
0.0822        	1.110532e-06	8.647953e-06	1.799813e-05
0.0824        	1.018011e-06	8.611416e-06	1.794749e-05
0.0826        	9.520336e-07	8.577341e-06	1.788928e-05
0.0828        	1.209786e-06	8.546368e-06	1.783050e-05
0.083         	1.083828e-06	8.516915e-06	1.776760e-05
0.0832        	9.821038e-07	8.488053e-06	1.770266e-05
0.0834        	1.230073e-06	8.458187e-06	1.764508e-05
0.0836        	1.098687e-06	8.429579e-06	1.758340e-05
0.0838        	9.979586e-07	8.399057e-06	1.752857e-05
0.084         	1.235838e-06	8.369274e-06	1.747172e-05
0.0842        	1.090907e-06	8.336669e-06	1.742943e-05
0.0844        	9.791376e-07	8.304651e-06	1.738301e-05
0.0846        	1.213311e-06	8.275994e-06	1.732800e-05
0.0848        	1.068498e-06	8.249073e-06	1.726921e-05
0.085         	9.640352e-07	8.222766e-06	1.720805e-05
0.0852        	1.201163e-06	8.195134e-06	1.715419e-05
0.0854        	1.058965e-06	8.168003e-06	1.709824e-05
0.0856        	9.559881e-07	8.137703e-06	1.705086e-05
0.0858        	1.184792e-06	8.110237e-06	1.699771e-05
0.086         	1.035788e-06	8.078800e-06	1.695638e-05
0.0862        	9.235229e-07	8.048821e-06	1.691001e-05
0.0864        	1.147012e-06	8.022625e-06	1.685880e-05
0.0866        	1.008628e-06	7.997536e-06	1.680333e-05
0.0868        	9.077622e-07	7.972416e-06	1.674663e-05
0.087         	1.128942e-06	7.946748e-06	1.669613e-05
0.0872        	9.948907e-07	7.920391e-06	1.664650e-05
0.0874        	1.200216e-06	7.895058e-06	1.659673e-05
0.0876        	1.036373e-06	7.868084e-06	1.655693e-05
0.0878        	9.185599e-07	7.840696e-06	1.651704e-05
0.088         	1.119946e-06	7.815562e-06	1.646782e-05
0.0882        	9.763252e-07	7.791462e-06	1.641889e-05
0.0884        	1.177696e-06	7.767599e-06	1.637143e-05
0.0886        	1.008651e-06	7.745457e-06	1.631929e-05
0.0888        	8.964697e-07	7.722221e-06	1.626662e-05
0.089         	1.109412e-06	7.698614e-06	1.621941e-05
0.0892        	9.733059e-07	7.670159e-06	1.618070e-05
0.0894        	1.165664e-06	7.646803e-06	1.613433e-05
0.0896        	9.946096e-07	7.617785e-06	1.610189e-05
0.0898        	1.178381e-06	7.594815e-06	1.605617e-05
0.09          	9.974213e-07	7.570811e-06	1.601317e-05
0.0902        	1.182686e-06	7.548463e-06	1.596824e-05
0.0904        	1.002391e-06	7.527332e-06	1.592072e-05
0.0906        	8.722316e-07	7.505198e-06	1.587374e-05
0.0908        	1.054863e-06	7.483148e-06	1.582927e-05
0.091         	9.176117e-07	7.458635e-06	1.579077e-05
0.0912        	1.095899e-06	7.437073e-06	1.574737e-05
0.0914        	9.379403e-07	7.414343e-06	1.571089e-05
0.0916        	1.110785e-06	7.393221e-06	1.566812e-05
0.0918        	9.441338e-07	7.372757e-06	1.562796e-05
0.092         	1.113892e-06	7.352009e-06	1.558562e-05
0.0922        	9.466238e-07	7.331790e-06	1.554418e-05
0.0924        	1.111743e-06	7.311237e-06	1.550218e-05
0.0926        	9.491432e-07	7.288120e-06	1.546537e-05
0.0928        	1.113487e-06	7.267687e-06	1.542380e-05
0.093         	9.487539e-07	7.241005e-06	1.539316e-05
0.0932        	1.109348e-06	7.220885e-06	1.535224e-05
0.0934        	9.331131e-07	7.197326e-06	1.531563e-05
0.0936        	1.089176e-06	7.177779e-06	1.527550e-05
0.0938        	9.166140e-07	7.159511e-06	1.523327e-05
0.094         	1.077673e-06	7.140552e-06	1.519391e-05
0.0942        	9.132991e-07	7.124178e-06	1.514969e-05
0.0944        	1.073939e-06	7.105466e-06	1.511067e-05
0.0946        	9.126339e-07	7.087859e-06	1.507031e-05
0.0948        	1.069909e-06	7.069151e-06	1.503145e-05
0.095         	9.125514e-07	7.045266e-06	1.500633e-05
0.0952        	1.068808e-06	7.026601e-06	1.496783e-05
0.0954        	9.043437e-07	6.999926e-06	1.494728e-05
0.0956        	1.055059e-06	6.981658e-06	1.490946e-05
0.0958        	8.812983e-07	6.962167e-06	1.487374e-05
0.096         	1.029859e-06	6.944520e-06	1.483672e-05
0.0962        	8.675542e-07	6.928860e-06	1.479506e-05
0.0964        	1.022059e-06	6.911598e-06	1.475855e-05
0.0966        	8.669199e-07	6.897097e-06	1.471481e-05
0.0968        	1.018206e-06	6.879922e-06	1.467843e-05
0.097         	8.616365e-07	6.862145e-06	1.464336e-05
0.0972        	1.007890e-06	6.844978e-06	1.460722e-05
0.0974        	8.558706e-07	6.820319e-06	1.459018e-05
0.0976        	1.003537e-06	6.803281e-06	1.455449e-05
0.0978        	8.430447e-07	6.780697e-06	1.453149e-05
0.098         	9.842986e-07	6.764136e-06	1.449650e-05
0.0982        	1.143183e-06	6.748095e-06	1.446225e-05
0.0984        	9.320442e-07	6.734381e-06	1.442265e-05
0.0986        	1.070433e-06	6.718510e-06	1.438849e-05
0.0988        	8.886367e-07	6.705574e-06	1.434568e-05
0.099         	1.034492e-06	6.689666e-06	1.431141e-05
0.0992        	8.657315e-07	6.671657e-06	1.427860e-05
0.0994        	1.004654e-06	6.655773e-06	1.424463e-05
0.0996        	8.403402e-07	6.630379e-06	1.423292e-05
0.0998        	9.806584e-07	6.614721e-06	1.419953e-05
0.1           	1.139177e-06	6.599587e-06	1.416690e-05
0.1002        	9.153578e-07	6.582789e-06	1.414067e-05
0.1004        	1.039982e-06	6.567859e-06	1.410823e-05
0.1006        	8.521053e-07	6.552505e-06	1.407720e-05
0.1008        	9.891765e-07	6.537662e-06	1.404485e-05
0.101         	1.145187e-06	6.523268e-06	1.401324e-05
0.1012        	9.267407e-07	6.508214e-06	1.397740e-05
0.1014        	1.054424e-06	6.493475e-06	1.394539e-05
0.1016        	8.710639e-07	6.473053e-06	1.392147e-05
0.1018        	1.004178e-06	6.458277e-06	1.388956e-05
0.102         	8.256076e-07	6.435391e-06	1.387484e-05
0.1022        	9.498838e-07	6.421048e-06	1.384365e-05
0.1024        	1.090522e-06	6.407173e-06	1.381314e-05
0.1026        	8.789260e-07	6.394753e-06	1.378259e-05
0.1028        	9.980306e-07	6.381207e-06	1.375251e-05
0.103         	1.136436e-06	6.368030e-06	1.372297e-05
0.1032        	9.101860e-07	6.359611e-06	1.368496e-05
0.1034        	1.038863e-06	6.346061e-06	1.365481e-05
0.1036        	8.620406e-07	6.333483e-06	1.362305e-05
0.1038        	9.958573e-07	6.319656e-06	1.359265e-05
0.104         	1.139561e-06	6.306350e-06	1.356316e-05
0.1042        	9.047471e-07	6.278942e-06	1.356101e-05
0.1044        	1.018958e-06	6.265644e-06	1.353169e-05
0.1046        	8.335469e-07	6.242070e-06	1.352084e-05
0.1048        	9.655926e-07	6.228908e-06	1.349164e-05
0.105         	1.117451e-06	6.216186e-06	1.346306e-05
0.1052        	8.879745e-07	6.207876e-06	1.342588e-05
0.1054        	9.935071e-07	6.195260e-06	1.339734e-05
0.1056        	1.118382e-06	6.183005e-06	1.336943e-05
0.1058        	8.872637e-07	6.176888e-06	1.332712e-05
0.106         	1.002802e-06	6.164428e-06	1.329885e-05
0.1062        	8.234930e-07	6.152599e-06	1.326631e-05
0.1064        	9.481302e-07	6.140170e-06	1.323825e-05
0.1066        	1.085351e-06	6.128156e-06	1.321091e-05
0.1068        	8.644434e-07	6.101975e-06	1.321322e-05
0.107         	9.729655e-07	6.089912e-06	1.318587e-05
0.1072        	1.107491e-06	6.078259e-06	1.315907e-05
0.1074        	8.808996e-07	6.058129e-06	1.314895e-05
0.1076        	9.941858e-07	6.046058e-06	1.312157e-05
0.1078        	1.126103e-06	6.034415e-06	1.309487e-05
0.108         	8.800491e-07	6.022550e-06	1.306642e-05
0.1082        	9.721868e-07	6.010813e-06	1.303957e-05
0.1084        	1.086160e-06	5.999471e-06	1.301339e-05
0.1086        	8.630019e-07	5.988412e-06	1.298330e-05
0.1088        	9.666020e-07	5.976981e-06	1.295695e-05
0.109         	1.085871e-06	5.965926e-06	1.293122e-05
0.1092        	8.629812e-07	5.953254e-06	1.290764e-05
0.1094        	9.594135e-07	5.942031e-06	1.288163e-05
0.1096        	1.068976e-06	5.931167e-06	1.285622e-05
0.1098        	8.522143e-07	5.914718e-06	1.284274e-05
0.11          	9.499581e-07	5.903575e-06	1.281698e-05
0.1102        	1.060780e-06	5.892816e-06	1.279182e-05
0.1104        	8.464290e-07	5.874778e-06	1.277942e-05
0.1106        	9.410386e-07	5.863859e-06	1.275406e-05
0.1108        	1.046492e-06	5.853308e-06	1.272927e-05