/*--------------------------------*- C++ -*----------------------------------*\
  =========                 |
  \\      /  F ield         | OpenFOAM: The Open Source CFD Toolbox
   \\    /   O peration     | Website:  https://openfoam.org
    \\  /    A nd           | Version:  7
     \\/     M anipulation  |
\*---------------------------------------------------------------------------*/
FoamFile
{
    version     2.0;
    format      ascii;
    class       volScalarField;
    location    "360";
    object      T;
}
// * * * * * * * * * * * * * * * * * * * * * * * * * * * * * * * * * * * * * //

dimensions      [0 0 0 1 0 0 0];

internalField   nonuniform List<scalar> 
238806
(
0.277165
0.296119
0.00393487
-0.00467703
-0.00338149
0.195952
0.157944
0.33744
0.331197
0.0668617
0.0872532
-0.0013044
0.194847
0.215593
-0.00110221
-0.00183114
0.0438592
0.0579869
0.338517
0.28452
0.262079
0.260769
-0.000894193
0.00241454
-0.000621641
0.0127613
0.0184612
0.00573181
0.00582237
-0.00526942
0.227922
0.215309
0.130548
0.162385
0.145846
0.148672
3.52028e-23
1.99132e-21
0.0944971
0.130035
0.117083
-0.00505156
0.1767
0.176898
0.293822
0.338314
0.0280408
0.0452606
0.193847
0.225309
0.235488
0.201585
0.203574
0.224987
7.99623e-07
8.04578e-07
0.0568148
0.0516774
0.0796376
0.0377468
0.054912
0.0303104
0.13137
0.158074
0.174731
0.234398
0.298367
0.324369
0.265882
0.324693
0.329056
0.188671
0.15902
0.235797
0.206762
0.246183
0.267553
0.149107
0.152378
0.00278863
0.00300012
0.193397
0.23782
0.256248
0.295628
0.282283
0.282115
0.00364595
0.000797834
0.00598234
0.0063932
0.0814488
0.0940469
0.260086
0.168891
0.137215
0.139293
0.121257
0.0839157
-0.00490116
0.337352
0.341813
0.355101
0.248953
0.201019
0.221362
0.209456
0.248594
0.225537
0.176426
0.145424
0.290632
0.294514
0.194512
0.22534
0.172646
0.180178
1.92726e-20
1.41789e-20
1.10805e-20
-0.000935355
-0.000221931
0.288621
0.253635
0.20043
0.161363
-0.00112544
-0.000539109
0.00905968
-0.000263796
0.112643
0.0316016
0.0159233
-0.0051847
0.0194717
0.0622948
0.305551
0.306402
-0.00290016
-0.00296664
-0.00247726
-0.00290693
0.160265
0.169898
0.078046
0.355863
0.354706
0.353057
0.333089
0.337593
0.342755
0.306839
0.327546
0.190247
0.169487
0.254075
0.238953
0.199206
0.171195
0.255946
0.256549
0.236748
0.25915
0.254643
0.291313
0.181667
0.187739
0.00636848
0.0065147
-8.86148e-20
-2.80893e-20
0.209595
0.249288
-2.88045e-05
-3.61811e-05
-3.21424e-06
0.291789
0.254532
0.207233
0.240235
-0.00131992
-0.000156508
-0.00513682
0.0156969
0.0159835
0.0274645
0.0396603
0.00468027
0.259006
0.260146
0.254253
0.254955
0.120529
0.0529053
0.0657096
0.0544109
0.0955609
-0.000661272
-0.00486027
0.00612486
-0.00785594
0.269639
0.328068
0.303807
0.233368
0.315415
0.251693
0.292843
0.294671
0.340819
0.33041
0.00741393
0.00440795
0.152921
0.131919
0.138828
0.164855
0.0688492
0.0996682
0.217225
0.243288
0.288958
0.289063
0.283729
0.267323
0.2843
0.249246
0.157913
0.161754
0.0185508
0.0201988
4.12737e-05
5.1997e-05
9.88347e-05
0.000122896
2.72524e-09
1.81773e-09
0.353814
0.352894
0.0405765
0.0361302
-0.000205458
1.20906e-05
0.0198012
0.0186592
0.285381
0.255615
0.255092
0.219673
0.271557
0.264478
0.208455
0.215458
0.0641399
0.0455018
0.0350543
0.0318734
0.0812
0.0803967
0.162966
0.162191
0.250652
0.252806
0.140633
0.130875
0.28276
0.277289
0.103952
0.125975
0.0389647
0.0261002
0.132968
0.00651206
0.00804447
-0.00195822
-0.000255172
0.324559
0.265811
0.364279
0.34721
0.355789
0.349477
0.317647
0.320633
0.195579
0.174459
0.233905
0.28524
0.0965966
0.104487
0.0330713
0.0238163
0.156766
0.136645
0.133348
0.109881
0.142702
0.114278
0.114688
0.0843404
0.20783
0.181661
0.170304
0.186514
0.279256
0.264483
0.182011
0.208118
0.256292
0.275803
0.152048
0.137243
0.175664
0.15394
0.263024
0.25349
-2.45144e-06
-3.24357e-06
0.0117969
0.0129848
0.00227751
0.00197057
0.00255782
0.00236953
2.58841e-05
2.29741e-05
2.11084e-09
3.16602e-09
6.62386e-21
0.222704
0.258934
-0.000933154
-0.000230541
1.18063e-08
7.98352e-09
0.181788
0.189103
-0.000147186
-0.000144597
0.126121
0.0634527
0.203748
0.165588
0.247848
0.213511
0.274646
0.269572
-0.0033694
-0.00261001
0.000848432
-0.00252908
0.0067699
0.00345101
0.0112826
0.0130476
0.224699
0.217675
0.258799
0.175897
0.174586
0.147426
0.135135
0.138303
0.204027
0.0536534
0.129107
-0.00487457
-0.00172212
-0.00248495
0.15561
0.172786
0.0184826
0.0407328
-0.0107726
-0.00453076
0.0173157
0.000842055
0.226629
0.154747
0.0771775
0.163964
0.240434
0.300749
0.271437
0.184596
0.288281
0.20594
0.275007
0.27225
0.265353
0.25751
0.199787
0.24519
0.268652
0.323659
0.17096
0.187857
0.322799
0.337496
0.330459
0.327873
0.00921144
0.0136603
0.233606
0.239179
0.159404
0.140179
0.141302
0.118598
0.100788
0.0763533
0.0595898
0.0394348
0.214663
0.190454
0.194375
0.176469
0.278231
0.266588
0.216291
0.188007
0.259738
0.271549
0.142773
0.14591
0.169714
0.149877
0.272547
0.00268911
0.00310259
0.0198719
0.0215694
0.00836959
0.00743713
0.00841499
0.00941765
4.17072e-05
3.3051e-05
0.000125301
0.000153846
3.62074e-05
2.89132e-05
7.55727e-14
2.33805e-14
7.58951e-06
9.63152e-06
0.0477115
0.0746118
0.0658889
0.0989992
0.115599
0.000140276
-0.000512405
-0.00104472
-0.000765261
1.0935e-06
1.09793e-06
0.113228
0.110262
0.00010578
0.000156636
4.01274e-06
4.50534e-06
-0.000432145
7.17259e-05
0.0439218
0.110762
0.285112
0.297357
0.182839
0.150939
0.277757
0.238373
0.253408
0.240332
0.00791418
0.00668478
0.00135005
-0.00265398
0.0362771
0.0110502
0.0284905
0.261065
0.17403
0.307768
0.304331
0.314106
0.315385
0.134226
0.126444
0.17116
0.165687
0.154955
0.151061
0.226627
0.237115
0.143198
0.180838
-0.00610191
0.0465463
0.0633396
0.016001
-0.00266174
-0.00286165
-0.000262741
-0.0025377
0.0168954
0.0271364
0.187687
0.169438
0.185506
0.10189
0.322266
0.265225
0.334273
0.335888
0.367145
0.333753
0.351927
0.360824
0.292553
0.291479
0.308973
0.306038
0.28191
0.289465
0.191423
0.172758
0.349211
0.340665
0.181944
0.167035
0.27658
0.227429
0.321325
0.298805
0.0216285
0.0180618
-0.000803866
-0.000481504
0.240171
0.250959
0.210466
0.223783
0.176236
0.194376
0.164063
0.186179
0.147826
0.125963
0.113043
0.0885506
0.0735645
0.0513096
0.236204
0.253767
0.219741
0.19756
0.17001
0.153733
0.248736
0.235519
0.275825
0.267106
0.254682
0.277254
0.166589
0.187243
0.209116
0.175274
0.308349
0.299731
0.29111
0.282001
0.142922
0.139917
0.243961
0.234469
-2.18664e-07
-1.70457e-07
-8.47091e-06
-7.65547e-06
0.0128945
0.0141456
0.00556493
0.00567875
0.0020811
0.00239722
6.55556e-05
5.47767e-05
2.44101e-05
1.19824e-05
0.000164382
0.000143993
3.25304e-05
4.06985e-05
2.68687e-17
-5.43475e-18
-3.03594e-20
-9.01027e-21
2.2769e-07
2.20269e-07
1.31607e-09
1.44704e-09
0.015801
0.00559094
0.0572051
0.000868689
0.0538867
0.066742
0.171229
0.136554
0.0632181
0.090922
7.42354e-05
0.00398675
3.01991e-06
3.43783e-06
-3.51626e-16
-1.80769e-16
0.00879893
0.00479992
0.030848
0.0294266
4.97914e-06
5.40301e-06
-9.42346e-08
-6.23739e-07
5.59201e-06
5.70358e-06
0.138927
0.0812839
0.183851
0.181068
0.28017
0.272524
0.243957
0.248705
0.186557
0.152575
0.262284
0.258042
0.234582
0.24264
-0.00121917
2.58601e-05
0.134659
0.150343
0.0746443
0.0428354
0.0243546
0.0100743
-0.00513338
0.258745
0.179988
0.0927761
0.100135
0.302869
0.303209
0.307285
0.308715
0.13111
0.124157
0.215953
0.207908
0.143961
0.133019
0.293967
0.288195
0.217597
0.211615
0.00948996
0.00220107
0.0102833
-0.00479211
0.103789
0.123318
0.0322904
0.00860282
0.0539998
0.193501
0.21193
0.0547362
0.0317898
-0.00246477
-0.00279429
0.238265
0.25239
0.161802
0.075573
0.300388
0.238164
0.25225
0.160136
0.300962
0.291144
0.29867
0.295202
0.270461
0.274588
0.264408
0.240384
0.23499
0.296712
0.303333
0.313819
0.25845
0.300196
0.316262
0.261149
0.216801
0.184692
0.169044
0.331243
0.331649
0.084065
0.0760232
0.028655
0.0346741
0.000142205
-0.000785298
0.0223512
0.0142522
0.202977
0.223184
0.238955
0.247831
0.210467
0.225319
0.194712
0.177802
0.157174
0.180634
0.123987
0.0998833
0.0875384
0.0638312
0.231781
0.251994
0.202149
0.183143
0.249325
0.251543
0.27521
0.28182
0.278909
0.260638
0.227852
0.250656
0.156339
0.162979
0.285408
0.273025
0.296284
0.229167
0.238497
0.136856
0.139699
0.239849
0.249478
0.212464
0.221428
0.204892
0.207544
7.46009e-08
-2.88925e-07
6.07348e-08
1.18524e-08
0.00729421
0.00747169
0.0145143
0.0130666
0.00755007
0.00845749
0.00920881
0.0103189
3.13736e-05
2.49012e-05
7.88063e-05
3.96377e-05
0.000695861
0.000628568
0.000106696
0.000130503
0.000272474
0.000329885
0.000116523
0.000142824
5.60263e-05
4.51312e-05
8.79769e-11
1.37097e-10
1.38818e-15
3.08508e-15
-1.5442e-17
-1.3082e-17
7.93717e-21
2.76874e-21
1.47827e-18
3.8003e-19
1.57238e-07
1.63828e-07
6.22527e-21
7.42211e-21
4.03825e-21
0.0768541
0.0494722
0.156215
0.178977
0.146513
0.240266
0.237167
0.0723902
0.0711026
0.0468511
0.0611956
0.220442
0.244001
0.154751
0.187515
0.00820586
0.000781681
0.00649658
0.0108624
0.117583
0.109339
1.48737e-09
9.85006e-10
1.20717e-06
1.39178e-06
1.10359e-07
1.12508e-07
-2.06242e-14
-1.61786e-14
0.0907856
0.09596
0.118189
0.115887
0.051148
0.0489133
0.0279485
0.0264296
-0.00012438
-0.00011857
-2.59711e-05
-9.52792e-05
-4.53717e-05
-0.000112584
-0.000109616
0.144342
0.12923
0.115195
0.0453723
0.204612
0.196458
0.173105
0.297275
0.287527
0.251138
0.291772
0.274729
0.146067
0.171996
0.252638
0.28132
0.204429
0.193842
0.00844163
0.00166697
0.173296
0.184408
0.0242381
0.0520127
0.0164917
-0.00377648
0.179601
0.261157
0.0384646
0.00633742
0.165905
0.161565
0.312431
0.31033
0.13739
0.128679
0.20025
0.192944
0.178152
0.235477
0.24742
0.258081
0.272462
0.267196
0.00921191
0.0289003
0.00228567
-0.0018306
-0.00162855
-0.00129772
0.128748
0.146624
0.0726391
0.0856766
0.0049803
0.000163313
0.101307
0.0850196
0.00883474
0.0307334
0.00856307
0.00904363
0.320519
0.27202
0.164491
0.0789317
0.341153
0.366354
0.179914
0.209068
0.302359
0.310619
0.310873
0.197735
0.195065
0.177523
0.206286
0.343093
0.344046
0.179459
0.164951
0.333018
0.314857
0.0279708
0.0324406
0.0144001
0.0108085
-0.000148229
0.00207076
0.0270361
0.0366907
0.0154664
0.240222
0.25309
0.233927
0.229747
0.173488
0.192927
0.173583
0.148836
0.0997645
0.129273
0.175423
0.157794
0.235096
0.239794
0.227454
0.241045
0.251724
0.26348
0.286095
0.2824
0.219448
0.242208
0.19382
0.165397
0.175456
0.162844
0.177249
0.212581
0.302165
0.31412
0.245001
0.133764
0.136695
0.211774
0.220244
0.187867
0.195655
2.50984e-06
-5.06409e-07
6.32089e-08
-2.25888e-07
-4.73646e-06
-6.42175e-07
-6.85921e-06
-1.82919e-06
0.0289029
0.031769
0.0129545
0.014321
0.00797926
0.00890197
0.00606223
0.00531126
0.00275363
0.00262521
7.17728e-06
2.4177e-05
6.21179e-05
3.07416e-05
0.00113218
0.00102345
1.82334e-05
1.40759e-05
1.92e-05
8.42146e-06
0.000150518
0.000122241
0.000281678
0.000341836
0.000335652
0.000403299
4.92555e-05
3.91098e-05
0.000114334
0.000140807
5.0695e-05
6.2921e-05
5.55662e-06
4.30024e-06
1.25403e-14
4.20184e-14
-1.57768e-17
-2.8118e-17
9.8025e-21
3.69732e-21
5.9525e-16
1.18461e-15
3.69645e-10
2.52048e-10
1.8964e-07
2.61441e-07
1.06168e-09
1.16616e-09
1.03919e-10
8.91346e-11
0.304838
0.298103
0.329399
0.0368791
0.0214298
0.042232
0.0173342
-0.00313291
-0.00386269
0.0524217
0.0483404
0.312024
0.320777
0.0337612
0.0457691
0.0753501
0.0899375
0.151496
0.115548
-0.00467166
-0.00280233
0.00308675
-0.00308646
0.210662
0.222794
0.104002
0.101326
-2.46429e-14
-1.48943e-14
4.85455e-06
4.82192e-06
1.01956e-06
8.80751e-07
1.48787e-06
1.49084e-06
1.13508e-13
4.40771e-13
1.14674e-11
4.15957e-12
0.163064
0.170676
0.0172194
0.0198469
0.0509066
0.0568341
0.164194
0.170945
0.0983942
0.100835
0.0209002
0.0219605
0.0016572
0.00163423
5.73223e-06
4.01628e-06
0.000160626
0.000160519
-5.0297e-05
-0.000925811
0.189557
0.198053
0.168367
0.175217
0.280391
0.294968
0.231912
0.238059
0.175694
0.147835
0.182207
0.166764
0.264797
0.278319
-0.000125211
0.00355034
0.000424314
0.00564382
0.0177045
0.137789
0.151059
0.0657886
0.0870185
-0.00476595
0.00323764
0.0272604
0.00609299
0.0404702
0.00386692
0.10437
0.17312
0.171575
0.306994
0.299613
0.276019
0.274206
0.179342
0.155616
0.176949
0.183183
0.186119
0.11858
0.0888009
0.125093
0.103973
0.0546715
0.0353084
0.0239725
0.0478646
0.0139809
0.030364
0.00523857
0.168946
0.207254
0.192561
0.162174
0.178527
0.0981125
0.114819
0.0146109
0.00699401
0.0549606
0.0204175
-0.00298244
0.300507
0.244404
0.266556
0.320553
0.196839
0.184846
0.223129
0.188298
0.246781
0.279536
0.219095
0.204197
0.309599
0.305784
0.294342
0.241113
0.200426
0.17604
0.221817
0.268602
0.0551881
0.0609273
0.02669
0.0342959
0.0184125
0.0232414
-0.000818658
-0.00049947
0.0435472
0.054796
0.0123709
0.007243
0.225167
0.206867
0.236722
0.24386
0.127284
0.154559
0.142822
0.155463
0.20312
0.217364
0.256249
0.243626
0.272206
0.266214
0.193685
0.171363
0.211505
0.233888
0.16873
0.199694
0.160725
0.171081
0.206243
0.173378
0.307947
0.319315
0.14151
0.157899
0.13065
0.133822
0.230553
0.203613
-5.8173e-07
3.38637e-06
-4.13907e-06
-3.95962e-07
-9.47719e-07
-1.34484e-06
-9.3987e-06
-1.15065e-05
0.0042239
0.00536574
0.0340787
0.0335631
0.0157985
0.0160872
0.0117357
0.0105134
0.00944734
0.00939325
0.00995031
0.0111699
0.00374886
0.00426459
1.35059e-05
1.09792e-05
2.88639e-05
8.49268e-06
0.00150819
0.00126402
0.000980773
0.00091448
0.000602
0.000556311
0.000759804
2.64116e-06
3.60411e-06
4.87388e-06
6.48504e-06
3.657e-05
0.000172401
0.000140893
0.000229397
0.000279577
0.000398531
0.000446571
0.000174283
0.000156305
0.000128466
0.000105037
5.36923e-05
6.72767e-05
0.000117417
0.00014404
5.7369e-05
7.12276e-05
1.12103e-07
1.54467e-07
1.88948e-05
2.28128e-05
9.16177e-13
5.40836e-13
2.22594e-15
9.18009e-16
-4.97805e-17
-1.48278e-17
6.56788e-20
3.52847e-20
1.14454e-20
4.93781e-21
-2.5017e-18
-1.30476e-18
7.8878e-10
5.43713e-10
4.3201e-07
3.79517e-07
2.16589e-08
2.32952e-08
4.93757e-10
4.47422e-10
9.47504e-10
8.60721e-10
4.53491e-12
4.17391e-12
3.21119e-20
2.21426e-20
0.19278
0.241556
0.0354313
0.0571284
0.0756457
0.0914764
0.0185589
0.00786126
0.0436672
0.0671111
0.0349505
0.222106
0.198325
0.378716
0.379394
0.020476
0.0160517
0.0252266
0.083328
0.0668004
0.0854679
0.060238
-0.00711431
0.00354131
0.0265815
0.000202821
0.000543778
-0.00710119
-0.00335561
0.0558558
0.0789654
0.112344
0.120995
3.33525e-08
3.64843e-08
1.32957e-12
6.42517e-13
4.01688e-08
4.20129e-08
4.18945e-08
1.47511e-07
7.43046e-07
6.39195e-07
1.96947e-13
7.95369e-13
2.54385e-12
7.13841e-12
0.111269
0.117142
0.158979
0.166388
0.0219493
0.0191114
-1.00693e-06
-1.52175e-06
1.94626e-06
-8.67224e-06
0.00209032
0.000588465
0.102952
0.104691
0.037007
0.0350696
0.0011267
0.00102285
0.00488208
0.00481364
5.8413e-06
5.98247e-06
-0.000174503
-0.000180381
0.23513
0.245195
0.151783
0.0967727
0.306793
0.307827
0.250108
0.244577
0.26855
0.287819
0.179298
0.149444
0.160777
0.209679
0.265977
0.280804
0.029456
0.0460802
0.0311695
0.10761
0.0812112
0.106668
0.162885
0.097617
0.117244
0.0400451
0.0514656
0.106595
0.107982
0.245115
0.247483
0.166952
0.146417
0.160536
0.185983
0.230344
0.226451
0.303071
0.298942
0.147166
0.167309
0.0649457
0.0560783
0.0744864
0.0938875
0.109263
0.0944036
0.0852059
0.0513421
0.0746439
0.0686397
0.00652148
-0.00206808
-0.00507317
-0.000612102
-0.00078629
0.194263
0.236356
0.210141
0.108436
0.138771
0.0533858
0.0579441
0.0431025
0.0152326
0.0263916
-0.00206817
0.00971871
0.0479568
0.014407
0.300698
0.242477
0.194281
0.192132
0.194559
0.180574
0.199645
0.240021
0.315012
0.229256
0.191906
0.288869
0.257806
0.246544
0.233016
0.31341
0.308418
0.249333
0.303992
0.0721879
0.0781367
0.0365368
0.0249938
0.0417237
0.0487495
0.00588087
0.0120669
-0.000618831
-0.00080242
-0.00103455
-0.000540302
0.00427901
0.000792793
0.00255546
0.0187492
0.225832
0.20932
0.15985
0.146149
0.225297
0.21129
0.242339
0.245913
0.270264
0.259727
0.267557
0.264042
0.200609
0.176478
0.153946
0.159258
0.15857
0.166932
0.31476
0.324085
0.145722
0.163797
0.0209957
0.0216721
7.72656e-05
2.12012e-05
7.9819e-05
6.13285e-05
-1.44105e-06
-1.02771e-06
-2.9126e-06
-2.81563e-06
-1.07821e-05
-1.07633e-05
0.00295983
0.00256937
0.0151364
0.0133896
0.028235
0.0276494
0.0195871
0.0219167
0.0133751
0.0147059
0.00951864
0.0105735
0.0105238
0.0116909
0.0099007
0.0105636
0.0118942
0.0088352
0.00659042
0.00582426
0.00345997
0.0030178
1.1791e-09
9.34428e-10
2.58382e-05
3.26905e-05
0.000158694
0.000189653
-1.06714e-07
2.77902e-08
0.00106162
0.00142214
0.00212675
0.00251318
0.000858805
0.00082728
0.000710447
0.000658568
0.000359964
0.000329268
1.77529e-05
1.35288e-05
1.55739e-05
3.17239e-05
0.000160262
0.000217886
0.000190118
0.00015528
0.000371065
0.000307691
0.000301602
0.000274735
0.000117985
0.000134678
7.29539e-05
5.84017e-05
9.25115e-05
9.52037e-05
8.54862e-05
6.93186e-05
2.93293e-05
3.68401e-05
6.13338e-08
4.35926e-08
3.41716e-06
4.53336e-06
1.34074e-05
1.09391e-05
1.47587e-05
1.18585e-08
8.17474e-09
1.73843e-14
3.16537e-14
-8.12052e-16
-1.42952e-15
-5.63958e-18
-7.85061e-18
1.08187e-18
1.76452e-18
3.78205e-19
6.47927e-19
3.17362e-20
6.21578e-20
-6.59553e-20
1.97384e-20
-1.63502e-19
8.66827e-19
-2.66648e-19
-1.43566e-19
8.08123e-06
1.02483e-05
5.2047e-08
5.16915e-08
4.01279e-09
3.66868e-09
8.80054e-09
5.99706e-09
3.98206e-10
3.60606e-10
7.61602e-10
6.91969e-10
9.81571e-12
1.11455e-11
4.19065e-14
6.28491e-14
4.84282e-21
2.2041e-21
0.0151762
0.00729217
0.0670735
0.0803428
0.0872937
0.0591138
0.0830758
0.0318009
0.0433607
0.0262487
-0.00830967
0.119714
0.200485
0.205732
0.319345
0.325979
0.377122
0.350082
0.327185
0.353477
0.0421803
0.0313146
0.231608
0.261366
0.097609
0.124821
0.0629349
0.0766284
0.108794
0.0261461
0.0385278
0.0268462
-0.00695515
0.0258562
0.0425441
0.0237417
-0.00010148
-0.000203956
0.211065
0.222109
0.0237892
0.0270981
1.04925e-05
1.02555e-05
6.54228e-11
1.02797e-10
1.08507e-12
5.2198e-13
2.11442e-08
2.98795e-08
-1.50313e-08
-2.97915e-09
1.02454e-07
2.81733e-08
2.01471e-06
2.01422e-06
3.03631e-07
3.07568e-07
2.23095e-10
1.31272e-09
-9.45367e-16
-4.77636e-16
1.67664e-12
5.65569e-13
2.93127e-14
1.68747e-14
0.150024
0.157156
0.173909
0.181467
0.0581314
0.05411
0.0421654
0.0389725
3.56425e-06
-6.24664e-06
-1.13541e-05
0.000697222
0.00236844
0.150722
0.144395
0.0588102
0.057148
0.0466078
0.0442493
0.00736326
0.00686234
2.98942e-06
3.49575e-06
0.0165908
0.0171281
0.000179803
0.000181148
-4.52726e-05
-3.93651e-05
-0.000140512
2.33168e-05
0.273273
0.278687
0.167943
0.112272
0.285104
0.304772
0.233247
0.224142
0.261975
0.283131
0.190894
0.154918
0.218585
0.227966
-0.000873692
9.90617e-05
0.012806
0.118853
0.177663
0.26151
0.150924
0.172997
0.217637
0.268793
0.277985
0.0748952
0.097539
0.000254504
-0.00382915
-0.00489046
0.123264
0.152567
0.1179
0.039988
0.000139637
-0.00579571
-0.00141452
-0.000904274
3.45805e-06
0.180555
0.225538
0.090911
0.0717902
0.0571362
0.0804712
0.0312241
0.089521
0.100958
0.0028682
0.0653258
0.316929
0.327604
0.323652
0.200349
0.122585
0.190403
0.195159
0.264653
0.350049
0.178971
0.201015
0.303333
0.230392
0.302631
0.274183
0.216524
0.184286
0.28248
0.288799
0.0773229
0.0875195
0.111077
0.116474
0.0831259
0.0658895
0.0502432
0.0225044
0.0164604
0.00526251
0.00191832
-5.494e-05
-0.000239148
0.00161481
0.0469902
0.0312486
0.00777205
0.225683
0.203927
0.164834
0.149845
0.227705
0.233314
0.276451
0.267603
0.151379
0.155749
0.27978
0.24502
0.004641
0.00408611
0.045034
0.0480729
0.000214061
0.000261755
0.00882952
0.00986257
0.00199581
0.00169222
-6.61212e-08
-4.83728e-07
-3.56024e-06
-2.67581e-06
-6.10002e-06
-5.3906e-06
-2.67135e-06
0.0005748
0.000709691
0.00355858
0.00406388
0.0025364
0.00214076
0.00381612
0.00445102
0.0268652
0.0296131
0.0306314
0.0310728
0.0198182
0.02149
0.0173971
0.0191264
0.0161367
0.0106787
0.0117008
0.0109774
0.0121341
0.0109141
0.0123211
0.00749378
0.00819104
0.00276542
0.0031742
0.003154
0.00360259
-4.02493e-08
-3.16863e-08
2.61707e-05
2.06843e-05
5.62938e-05
4.60115e-05
0.000126926
4.80562e-05
1.37017e-05
0.000135912
0.000108471
0.00155614
0.00142657
0.00153598
0.00125992
0.00114695
0.00107267
0.00140005
0.00133089
0.000666264
0.000784689
0.000428475
0.000393372
0.000401286
7.58265e-07
1.03653e-06
8.97286e-06
6.6638e-06
0.000178089
0.000145644
7.9851e-05
0.000100593
0.000231637
0.000187983
0.000411999
0.000489056
0.000209946
0.00018935
0.000197726
4.8759e-05
3.86425e-05
0.00011186
0.0001373
9.45087e-05
7.78489e-05
9.6042e-05
3.58777e-05
4.50913e-05
4.60672e-05
3.13723e-07
8.82208e-08
1.82982e-06
2.44636e-06
8.17767e-06
5.55014e-06
8.42945e-06
1.12304e-05
7.0767e-10
4.68496e-10
1.87908e-16
9.91356e-16
-7.82123e-17
-4.20952e-17
-3.47939e-17
-1.04638e-15
-1.65225e-15
3.49747e-16
1.16559e-16
-8.77162e-17
-1.5389e-16
2.84325e-18
-1.17862e-17
4.13078e-19
7.42565e-19
3.42487e-20
5.83601e-20
1.58591e-20
1.85677e-20
-1.51065e-17
-8.59124e-18
-2.19556e-18
-4.10335e-18
2.09028e-16
1.03751e-16
3.73344e-06
2.85375e-06
7.02461e-07
5.1724e-07
3.18506e-08
3.53729e-08
6.2922e-08
7.5614e-08
2.52484e-07
3.41579e-07
1.5983e-08
1.4773e-08
5.16141e-09
5.09647e-09
7.00762e-13
1.15189e-12
3.17615e-10
2.86802e-10
1.61529e-10
1.38968e-10
1.26501e-11
1.36087e-11
5.33647e-17
8.70383e-17
1.97368e-21
4.37662e-21
1.24816e-21
0.195012
0.191363
0.283798
0.276061
0.149337
0.186693
0.173464
0.107519
0.000595787
-0.00798328
0.1095
0.00393192
-0.00438123
-0.00918508
0.0545896
0.0501143
0.208577
0.233766
0.321926
0.314545
0.248171
0.210783
0.346628
0.338693
0.317887
0.358349
0.0246025
-0.00433279
0.143386
0.172037
0.238859
0.26501
0.037662
0.0543338
0.0723758
0.13851
0.105374
0.13871
0.103537
0.0903102
0.0262511
0.0448947
0.0152215
0.318786
0.336134
0.290266
0.00558995
0.0175246
0.0349801
0.134639
0.126028
0.0112387
0.0126448
0.00164971
0.00138406
2.61621e-08
5.35245e-09
1.69103e-09
2.51943e-09
1.64576e-10
2.54594e-10
7.53068e-13
3.59619e-13
5.99675e-11
3.82515e-11
2.85598e-08
2.02031e-08
1.39026e-05
1.66582e-05
7.08747e-08
1.88684e-08
2.5179e-07
1.23323e-07
2.7145e-06
2.70811e-06
2.56477e-07
1.78849e-07
1.55395e-07
1.58107e-07
2.4001e-11
2.51715e-11
-2.16691e-15
-1.43982e-15
2.02255e-17
1.07147e-17
-6.92403e-14
-5.83593e-14
-3.08772e-14
-2.4113e-14
-7.42093e-16
-4.20141e-16
1.84189e-15
7.63736e-16
0.136184
0.142986
0.174472
0.167187
0.0558698
0.060052
0.0403242
0.043652
0.0452767
0.0533072
0.0145611
0.00971365
0.00531817
0.00961225
0.0716958
0.068137
0.060934
0.0589048
0.0564765
0.0536736
0.0388827
0.0407026
0.00345849
0.00319535
4.0067e-06
4.47477e-06
0.00434316
0.00394328
0.0101174
0.00997796
0.000168471
0.000175256
-3.50902e-05
-3.17341e-05
0.152764
0.152559
0.25223
0.283098
0.266781
0.183701
0.197681
0.287608
0.303092
0.225782
-0.000766038
0.161965
0.15893
0.181161
0.15774
0.175373
0.221486
0.164877
0.229856
0.217502
0.0747363
0.027096
-0.00284533
0.0733131
0.00330016
-0.000506561
9.56085e-05
0.0181925
0.00793658
-0.00105118
0.236656
0.246542
0.0420469
0.0284204
0.0611347
0.0796527
0.0472788
0.0264906
-0.00237557
0.0151462
0.00875269
0.32078
0.329231
0.214531
0.140132
0.187543
0.195815
0.343709
0.263439
0.279668
0.213201
0.182483
0.198094
0.266193
0.296669
0.0653299
0.0575973
0.120718
0.101544
0.0455928
0.0403687
0.0191832
0.0107842
-0.000834337
-0.000967557
0.0662676
0.196688
0.217659
0.181169
0.162079
0.233215
0.219396
0.171434
0.204154
0.0378315
0.0385787
0.0996198
0.108253
0.0404983
0.0403653
0.000291392
0.000264037
6.7799e-06
1.70575e-06
0.0180577
0.0199711
5.05752e-05
4.50885e-05
0.00504849
0.00575162
0.00107422
0.00115021
-3.11425e-06
-6.78672e-08
-2.11436e-06
-1.91816e-06
1.12561e-07
-1.98143e-06
-2.49919e-06
-2.30918e-06
0.000128407
0.000171553
0.00416578
0.00473696
0.00302914
0.00347417
0.00163835
0.00195977
0.0212282
0.0236037
0.0242641
0.0268488
0.0309966
0.0340038
0.0189757
0.017179
0.0325782
0.0311019
0.0170149
0.0182909
0.0196543
0.0177962
0.00963194
0.00865795
0.00935479
0.00964127
0.00692508
0.00775622
0.00287091
0.00250084
0.00340883
0.00388329
-2.17484e-09
-1.4454e-09
2.69984e-09
1.83882e-09
1.97549e-05
1.56285e-05
0.000129677
0.00015531
0.000282718
0.000336812
1.1736e-05
4.07001e-05
3.85252e-06
2.65643e-06
0.000307935
0.000169146
0.00169469
0.00184205
0.00180042
0.00217191
0.00303022
0.00285207
0.000721483
0.000692987
0.000961289
0.00100764
0.000741497
0.000820595
0.000921534
0.000836065
0.000448537
0.000497203
0.000508597
0.000468525
6.44346e-05
8.10322e-05
2.746e-06
2.04492e-06
1.80555e-05
1.34462e-05
1.83498e-05
3.84544e-05
0.000254551
0.00020991
0.000125946
0.000101342
0.000156408
0.000190457
0.000428161
0.000509318
0.000252054
0.000228496
4.78864e-05
3.80709e-05
0.000103756
0.00012775
7.02456e-05
8.72261e-05
8.82445e-05
0.000109169
5.64017e-05
5.14681e-05
3.81268e-08
2.69651e-08
6.06524e-07
4.67708e-07
2.57146e-06
1.3696e-06
4.53209e-06
3.15143e-06
1.4461e-05
1.75755e-05
1.27218e-08
8.79392e-09
2.49568e-11
1.55727e-11
1.02792e-15
1.12582e-15
6.42082e-14
1.14607e-13
6.55805e-15
2.29509e-14
-3.96372e-16
-6.49479e-16
2.05546e-17
3.5176e-17
-2.68037e-16
-4.61159e-16
-2.23334e-17
-4.17247e-17
-6.10755e-18
-3.08996e-18
-4.65388e-19
-1.98487e-19
-1.40954e-19
-2.90833e-19
1.32107e-17
3.81114e-17
1.72206e-17
3.71197e-17
2.30061e-17
7.77813e-18
9.39196e-17
3.33075e-17
5.26733e-06
4.47893e-06
2.90826e-06
3.80824e-06
5.86266e-07
7.92841e-07
3.70509e-08
3.6828e-08
1.09956e-07
1.17179e-07
2.39794e-07
3.22695e-07
1.08785e-08
9.9966e-09
1.61987e-08
2.34606e-08
2.29699e-09
3.45409e-09
4.7168e-09
4.05776e-09
5.59125e-10
6.16321e-10
7.09139e-11
7.24075e-11
7.86252e-12
7.41998e-12
1.01479e-13
1.78287e-13
-2.81111e-16
-3.56319e-17
-5.5119e-19
2.30365e-17
9.64709e-21
0.186997
0.168165
-0.000972403
-0.000643061
0.370556
0.372332
2.84893e-05
-0.00418405
0.273938
0.221548
0.12075
0.144972
0.14897
0.133696
0.134337
0.160693
0.0332355
0.0542882
-0.00167161
-0.00247233
0.037598
0.0421309
0.215948
0.205012
0.290376
0.304091
0.289396
0.278816
0.203599
0.206859
0.208903
0.225221
0.372917
0.350045
0.297149
0.285908
0.161115
0.093082
0.367383
0.314031
0.0186389
-0.00536521
0.207927
0.192586
0.211128
0.268905
0.0790395
0.105967
0.127289
0.173727
0.190632
0.174538
0.148038
0.118178
-0.000872132
0.00379036
-0.00198635
-0.00198012
-0.00235959
0.051081
0.0160527
0.239272
0.223331
0.00572134
0.00567365
0.0364789
0.03386
0.198263
0.199697
0.118515
0.127928
0.0808851
0.0789577
-4.94783e-05
-5.09587e-05
0.0698874
0.0718166
3.77569e-08
5.40844e-08
2.57347e-06
3.46603e-06
1.62034e-08
2.33087e-08
-2.93564e-11
-1.98598e-11
-2.86286e-14
-4.46262e-14
2.13495e-12
1.74813e-12
2.42511e-11
1.52801e-11
1.37022e-07
1.89316e-07
-3.37508e-09
4.93774e-09
1.15066e-05
5.77894e-06
5.9331e-06
7.24129e-06
-1.37624e-11
-1.90128e-11
2.63222e-09
4.54385e-09
2.55583e-06
2.23553e-06
3.63895e-06
3.62299e-06
2.89215e-08
1.30536e-08
2.52023e-07
3.58845e-07
2.17728e-07
2.21078e-07
8.77393e-09
9.02889e-09
9.92588e-13
3.8528e-12
-5.2856e-16
-7.84739e-16
1.50478e-10
1.66119e-10
-1.02231e-13
-9.23671e-14
-4.63963e-14
-3.71732e-14
2.2878e-14
2.4381e-13
1.47476e-13
1.90433e-15
7.95952e-16
0.155581
0.148331
0.0220908
0.0239239
0.0824284
0.0873919
0.0401457
0.0431701
0.0246313
0.0223521
0.0645947
0.0720424
0.0574637
0.064145
0.0263251
0.0201609
0.00380092
0.00722505
-3.74309e-07
-4.46541e-06
5.61966e-05
-5.48271e-05
0.0655975
0.0624506
0.0472844
0.0452787
0.0999383
0.0961561
0.0345669
0.0355451
0.0552919
0.053285
0.012851
0.0120585
-7.69196e-05
-7.01828e-05
-0.000101246
-9.53174e-05
-2.93973e-05
-2.6916e-05
0.00993072
0.00957815
0.00487299
0.00490585
-0.000130216
-0.000136891
1.36061e-05
2.25359e-05
-0.000607633
0.223074
0.205871
0.177163
0.176119
0.270919
0.266408
0.145783
0.148265
0.16002
0.0494224
0.0792631
0.0900117
0.160354
0.199676
0.0306429
2.85249e-05
-8.10778e-06
-0.00111165
-0.00106655
-0.000405899
-0.00109847
0.157768
0.141108
0.122905
0.141219
-0.000856566
0.0779622
0.249997
0.30497
0.291265
0.300035
0.27721
0.282405
0.325967
0.249555
0.193062
0.194725
0.22134
0.291434
0.0670599
0.0572309
0.0967996
0.0909682
0.00580146
0.00177047
0.189805
0.209847
0.05219
0.0510224
0.222218
0.228227
0.0938691
0.098564
0.0429685
0.0468329
0.0230144
0.0238607
0.000114704
0.000106755
9.98163e-09
-2.65227e-08
-1.00109e-07
-7.58427e-08
0.00272188
0.00232925
0.0220224
0.00294571
0.00270477
8.97488e-05
2.42862e-05
0.000153432
0.000130303
0.007092
0.00786179
0.00103231
0.00190712
0.000454793
9.87531e-05
-2.68177e-06
3.70729e-08
-3.59939e-06
-2.08008e-07
1.62111e-07
2.00081e-07
0.000327902
0.000255825
0.00524319
0.00601151
0.0048597
0.00550294
0.00299436
0.00108824
0.00089907
0.00305718
0.00258643
0.0178921
0.020007
0.0178274
0.0197714
0.0251027
0.0253442
0.0302967
0.0332462
0.0208739
0.0186619
0.0251189
0.0272587
0.01545
0.0168203
0.0176762
0.019333
0.00420902
0.00427351
0.00744858
0.00848842
0.00641515
0.00726092
0.00534041
0.00603478
0.00635179
0.00713019
0.00451265
0.00395657
0.00414293
0.00471116
0.00298364
-9.41911e-09
-1.32198e-08
-1.31522e-08
-1.02502e-08
-2.48135e-08
-1.93217e-08
4.02191e-05
3.06153e-05
2.92812e-05
0.000105194
0.000126459
0.000234092
0.000279118
0.000338175
0.000205047
6.13879e-06
2.14077e-05
-1.4092e-06
1.96523e-07
4.6884e-05
0.000128958
0.000402651
0.000326238
0.00118457
0.000877911
0.00128518
0.00104845
0.00182958
0.00150876
0.0015545
0.00146255
0.000604984
0.000579384
0.00113262
0.00118933
0.000872373
0.000965229
0.000777287
0.000542717
0.00064277
0.000476396
0.000564118
3.12652e-05
2.44117e-05
5.73278e-06
4.32482e-06
2.73373e-05
2.11156e-05
9.77639e-05
7.66169e-05
3.03539e-05
1.41591e-05
7.24076e-05
8.89558e-05
0.000184283
0.000224507
0.000230842
0.00027874
0.000347145
0.000359692
0.000212617
0.000202143
0.000238956
7.45974e-05
5.99133e-05
3.35426e-05
4.25779e-05
9.0601e-05
8.37911e-05
0.000108151
0.000134229
4.11599e-05
3.27671e-05
5.24895e-08
1.90704e-07
1.22739e-06
9.75617e-07
2.13333e-07
2.93705e-07
3.21314e-06
2.13684e-06
2.35579e-06
6.17955e-06
7.33534e-06
1.07836e-05
8.20165e-07
6.11867e-07
5.16987e-07
7.14363e-07
1.10899e-08
1.58901e-08
2.95684e-09
3.93876e-09
1.81408e-11
1.14885e-11
2.05138e-14
2.75781e-14
3.8805e-14
3.50636e-13
6.03192e-13
1.0112e-13
1.78233e-13
3.31764e-15
1.22636e-14
-4.56662e-16
-2.54496e-16
-7.73805e-16
-1.21904e-15
-7.70022e-17
-1.40448e-16
4.56525e-18
7.35759e-18
-3.74413e-19
-7.36473e-19
-6.44646e-21
-1.83752e-19
2.98788e-15
5.64717e-15
1.66903e-16
3.52076e-16
-7.60589e-18
-4.69862e-18
-3.19887e-19
-1.20884e-19