/*--------------------------------*- C++ -*----------------------------------*\
  =========                 |
  \\      /  F ield         | OpenFOAM: The Open Source CFD Toolbox
   \\    /   O peration     | Website:  https://openfoam.org
    \\  /    A nd           | Version:  7
     \\/     M anipulation  |
\*---------------------------------------------------------------------------*/
FoamFile
{
    version     2.0;
    format      ascii;
    class       volScalarField;
    location    "2160";
    object      T;
}
// * * * * * * * * * * * * * * * * * * * * * * * * * * * * * * * * * * * * * //

dimensions      [0 0 0 1 0 0 0];

internalField   nonuniform List<scalar> 
238806
(
0.00143511
0.00133466
0.00380356
0.00557559
0.00483227
-5.79801e-05
-0.00019067
0.000977991
0.00106315
0.00259781
0.002466
0.00475196
-7.73663e-05
2.85705e-05
0.00693522
0.00652366
0.00293541
0.00273225
0.00066065
0.000175933
0.000757375
0.000943152
0.00533694
0.00416805
0.00547414
0.00350692
0.00338147
0.00390266
0.00454198
0.00585799
-7.72635e-05
-0.000128451
0.00228072
0.00209648
-0.000261588
-0.000261427
0.030606
0.0312525
0.0024104
0.00224992
0.0023139
0.00551355
-0.000156364
-0.000158223
0.000243656
0.000710898
0.00324107
0.00298367
0.00190358
0.00168341
0.000102725
-7.36284e-05
-5.8928e-05
5.51119e-05
0.000580157
0.000388116
0.00270815
0.0027142
0.0025258
0.00296124
0.00276617
0.00324797
0.0022416
0.0020954
0.00199732
-4.76746e-05
0.000284763
0.00114227
0.00151168
0.00105437
0.000971775
0.00188867
0.00207494
0.00157934
0.001792
0.000217643
0.000417597
-0.000234139
-0.000231828
0.000976045
0.000797187
0.00186523
0.00166845
0.00148685
0.0011208
0.0010386
0.000974253
0.00398434
0.00427589
0.0038943
0.00386054
0.00261355
0.00247538
0.00151173
0.00199348
-0.000233413
-0.000233554
0.00240189
0.00266321
0.00606888
0.000740449
0.000320078
0.000689477
7.11666e-05
-0.000154983
0.00115935
0.00130681
0.0014044
0.00159596
0.00199185
0.0021762
0.00100929
0.000789358
-9.49575e-05
6.24207e-05
-0.000160552
-0.000149215
0.0601131
0.0928554
0.080991
0.00638807
0.00790996
0.00116442
0.00147839
-4.72499e-05
-0.000183042
0.00545629
0.00716304
0.00375026
0.00474316
0.00235416
0.00300181
0.00342881
0.00580567
0.00328937
0.00272397
0.00107578
0.00108585
0.00548135
0.00606597
0.00512961
0.00601245
0.00218987
0.00218911
0.00284822
0.000444743
0.000840341
0.000614985
0.000262737
0.000412072
0.000729762
0.000221225
0.00047237
0.00163636
0.00179267
0.00118506
0.00135783
0.00178942
0.00197585
0.000702305
0.000884324
0.000175451
0.00036567
-2.72008e-05
0.000157782
-0.000186875
-0.000179785
0.000284473
0.000411621
0.00780332
0.00802206
0.00177795
0.00159829
-0.0178344
-0.010602
0.0326941
0.00114658
0.00148699
4.28011e-05
0.000242176
0.00584899
0.00780269
0.0066584
0.00343688
0.00336779
0.00317563
0.0029246
0.0041625
0.00152509
0.00152863
0.000102632
0.000100189
0.00237468
0.00318832
0.00284672
0.00293388
0.00258238
0.00549891
0.00704458
0.00444898
0.0057526
0.00167247
0.00119865
0.0013075
0.00167361
0.00122057
0.00158001
0.00126454
0.00119866
0.000656097
0.00035503
0.00359183
0.00383472
0.0018739
0.00202344
0.00212963
0.00196138
0.00273408
0.00248806
0.0016895
0.00148799
0.00071714
0.000941392
0.000551188
0.000332926
0.000135339
-3.60345e-05
-0.000242737
-0.000240903
-0.000224976
-0.000228973
0.00104016
0.00103873
2.23446e-05
1.67434e-05
0.000980537
0.000995172
0.00103563
0.00109252
0.00297524
0.00314969
0.00849374
0.00952072
0.00234592
0.00234032
0.0011848
0.00146792
0.000316031
8.01602e-05
0.000548941
0.000488607
0.00159364
0.00153223
0.00261023
0.00283607
0.00308333
0.00321464
0.00267043
0.00271923
0.00203158
0.00204749
9.85917e-05
0.000101536
-0.000217097
-0.000232853
0.00131498
0.00137442
0.00249722
0.00232797
0.00313086
0.00334191
0.00235588
0.00444043
0.00395429
0.00531757
0.00460268
0.00122402
0.0016856
0.000578113
0.00100012
0.000764214
0.000380625
0.000788941
0.000876532
-0.000228501
-0.000255205
-0.000131601
5.43452e-05
0.00233653
0.0022506
0.00309222
0.00331654
0.00180617
0.00195367
0.00210997
0.00226897
0.00215279
0.00233502
0.0023667
0.00258547
0.001696
0.00187968
-3.5131e-05
7.48071e-05
0.00108368
0.00129136
-0.000128628
1.92287e-06
0.000268489
0.000477744
-0.000219027
-0.000253592
-0.000193683
-0.00024475
0.000183575
0.000147616
0.00372426
0.00365129
-0.000200594
-0.000205943
-0.000242012
-0.00023957
0.000814194
0.000994399
-9.52671e-05
-0.000143651
0.000731529
0.000718397
0.0752629
0.00170612
0.00153817
0.00630448
0.00535552
0.00353268
0.00358612
0.000376086
0.00041402
0.0055069
0.00587298
0.00234706
0.00272675
-4.01012e-05
-0.000172435
0.000279231
6.14801e-05
0.000759031
0.00102454
0.0061043
0.00563685
0.00449146
0.00601591
0.00407967
0.00412786
0.00353121
0.0038878
1.13056e-05
-1.04655e-05
0.000189996
-0.000156155
-0.000157514
-0.000211035
-0.000233238
0.0022688
0.00186963
0.00304281
0.00231634
0.00528638
0.00471159
0.00640506
0.00229257
0.0021744
0.00377486
0.00325847
0.00655373
0.00491968
0.0040394
0.00469127
0.00185371
0.00228986
0.0029431
0.00223672
-1.14871e-05
0.000325579
0.00149577
0.00190386
0.00140329
0.00179234
0.001309
0.00137056
0.00147996
0.00156068
-0.000152892
6.22478e-05
-5.39466e-05
0.00021076
-0.000254538
-0.00023677
0.000305285
0.000590641
0.000746339
0.000675852
0.00354949
0.00335076
0.00105608
0.00089546
0.0017437
0.00188909
0.00202577
0.0021804
0.00240495
0.00258763
0.00279758
0.00302304
0.00160919
0.00178788
0.000100159
-1.75233e-05
0.00101214
0.00121349
2.93461e-05
-0.000113193
9.53578e-05
0.000142943
-0.000236959
-0.000235822
-0.000200262
-0.000246854
0.000223197
0.00213837
0.00212329
-0.00018906
-0.000194301
-0.000258722
-0.000257794
-5.29435e-05
-6.09181e-05
0.00129711
0.00129799
0.00171816
0.00168883
-0.000152614
-0.000148206
0.00397652
0.00484738
-0.000116312
-0.000121415
0.00315497
0.00287046
0.00292886
0.0022185
0.00211206
0.00746134
0.00787322
0.00608363
0.00736521
0.000569967
0.000379267
0.00143703
0.00141187
0.00418475
0.00414816
0.0472509
0.162655
0.00836841
0.0106007
0.00293328
0.00248899
0.000496092
0.000887272
-8.67413e-05
-0.000199252
0.0006059
0.00139247
0.0012009
0.00136651
0.00392433
0.00375884
0.00497233
0.00634391
0.00299686
0.00425527
0.00328209
0.00149569
0.00195625
0.000563602
0.00106571
0.000582235
0.0005809
-0.000221534
-0.000232447
-0.000141756
-0.000151692
-0.00020233
-0.000207115
0.00179567
0.00170796
0.00217614
0.00192609
0.00570636
0.00309266
0.00286268
0.00365789
0.00623105
0.0063193
0.00526947
0.00645382
0.00379124
0.00369225
0.00207026
0.00218679
0.00210785
0.00270453
0.00123476
0.00168287
0.000756667
0.000755397
0.000705969
0.00115411
0.000919598
0.000511208
0.00111762
0.00107057
0.000945195
0.000886985
0.000309732
0.000347786
-0.000233369
-0.000254641
0.00054458
0.000900061
-0.000240546
-0.000255689
2.7704e-05
-0.000143107
0.000419493
0.00018611
0.0030487
0.00315012
0.00699868
0.00566038
0.00122533
0.00105882
0.0013598
0.00121017
0.00165723
0.00150834
0.00186898
0.00170917
0.00194702
0.00209877
0.00229843
0.00247153
0.00265038
0.00285583
0.00143117
0.00125371
0.00152905
0.00170159
-9.53959e-05
-0.00017931
0.000517679
0.000339802
0.000943633
0.00114016
0.00146474
0.00123421
-0.000161061
-5.76046e-05
-0.000165221
-0.000240528
0.000452358
0.000378375
0.000319352
0.000267778
-0.000261713
-0.00026178
0.000114436
8.38046e-05
0.0173342
0.0177916
0.00522506
0.00466859
-0.000155097
-0.000162701
0.000296122
0.000424631
-0.000216723
-0.000220254
0.00290228
0.00291136
0.00272934
0.00323264
-7.96282e-05
-0.000139875
-0.000100358
-0.000105353
0.00556934
0.00565992
0.0158525
0.01617
-1.94488e-05
-3.19433e-05
0.000190038
0.000262154
0.00383199
0.00427465
0.00312651
0.00422074
0.00255846
0.00241565
0.00194515
0.00209723
0.00265096
0.00239981
0.00514657
0.00428694
0.0010587
0.000780714
0.0105031
0.010077
0.00257643
0.00286612
0.00216822
0.00215751
0.0858946
0.0860783
0.0264724
0.0749527
0.164719
0.168174
0.00223015
0.002583
0.0018629
0.00188987
0.000354244
0.000282312
0.000162035
0.000177995
-7.97634e-05
-0.000199709
0.00125421
0.00131933
0.0014512
0.00137785
0.00640832
0.00856309
0.00210739
0.00197551
0.00255709
0.00286988
0.00320435
0.00363057
0.00490309
0.00147996
0.00190288
0.00262319
0.00257281
0.000524916
0.00106027
0.00109322
0.00109292
-0.000223316
-0.000232223
1.59611e-05
-9.51762e-06
-0.000214329
-0.000233047
0.00117054
0.00124796
0.00186686
0.00191569
0.00399829
0.00465566
0.00377802
0.00581529
0.00250075
0.00237611
0.00346155
0.0035216
0.00338994
0.00202892
0.00189076
0.00300223
0.00337877
0.00714981
0.00534363
0.00177541
0.00168059
0.00224182
0.00294086
0.000311033
-2.70326e-05
0.00158928
0.00202274
0.000864897
0.000653695
0.000850834
0.00114235
0.00141702
0.00150064
0.00158655
4.83008e-05
3.17141e-05
0.000386668
0.0004255
0.00016323
-7.92817e-05
0.00125949
0.0011572
-1.31188e-05
-0.000158723
-0.000239173
-0.000254919
0.000895542
0.000819633
0.00240376
0.00249422
0.00300055
0.00288528
0.00469555
0.0054286
0.00325993
0.00354719
0.00162155
0.00145517
0.00116521
0.00100099
0.00141727
0.0012648
0.00145226
0.00159771
0.00195057
0.00178779
0.00220042
0.00236551
0.00252191
0.00271453
0.00151024
0.00132669
0.000125457
-6.90517e-07
0.000651074
0.000829044
0.000582695
0.00080363
0.00115779
0.00137476
0.000139389
0.000319551
-0.000260369
-0.000219401
0.000206117
0.000111253
0.0002847
-6.09475e-05
-3.97614e-05
-0.000261765
-0.000237566
3.13586e-05
6.045e-05
-3.88706e-05
-1.75405e-05
0.00121299
0.00125805
0.0501236
0.0454498
0.0476936
0.0477567
0.000698145
0.000539823
-0.000260549
-0.000260568
-0.00024736
-0.000249723
2.86363e-05
1.92022e-05
0.00157542
0.00157307
0.00292933
0.00339056
-4.45022e-06
-7.75245e-05
0.00213246
0.00211095
0.00122606
0.00120558
0.000544253
0.000535718
-0.000161503
-0.000157017
0.00417184
0.0041364
0.00608231
0.00595839
0.00586101
0.00597011
0.0841938
0.0858921
0.0053782
0.00550504
-2.32507e-05
-1.05715e-05
0.0871687
0.0838161
0.073027
0.00275067
0.00314476
0.00221884
0.00202334
0.00241464
-7.42844e-05
-7.70407e-05
0.0028255
0.00299143
0.00267506
0.00251042
0.00166749
0.00155119
0.00199946
0.00185974
0.00366588
0.00386178
0.00364966
0.00360319
-0.000348255
-0.000349005
0.00276584
0.00281935
0.00110314
0.000815254
0.000643859
0.000445525
0.00532272
0.0059895
0.000359521
0.000369598
0.00149363
0.00146425
0.00184299
0.00183097
0.00214857
0.00214118
0.00584744
0.00579801
-0.0123636
0.011216
-0.00182596
0.0113209
0.0112104
0.00211435
0.00223813
0.00243365
0.00282896
-4.08197e-05
-7.35298e-05
-0.000149617
0.000906073
0.000502118
0.00018187
0.000775711
0.000430164
-0.000197457
-0.000104902
0.00138299
0.0011027
0.00164807
0.00172685
0.00367013
0.00458335
0.00182842
0.00173448
0.00322412
0.00281892
0.00353831
0.00450024
0.00191388
0.00147529
0.00294053
0.00408107
-0.000178059
-0.000190139
0.000578461
0.000569895
-0.000219489
-0.000232649
-3.18367e-05
-5.15284e-05
0.00198903
0.0016377
0.00161631
0.00151637
0.00142588
0.0014786
0.00400514
0.00337283
0.00405532
0.0063696
0.00788337
0.00658452
0.00231748
0.00220165
0.00273328
0.00260165
0.00451556
0.0054659
0.00252304
0.00264519
0.00415122
0.00347185
0.00394186
0.00393805
0.00121324
0.00162096
0.00223328
0.00296771
0.00107893
0.000643429
-0.000186868
-4.9945e-05
0.000819745
0.00101181
0.00108367
-0.00015411
-0.000157674
-0.000257881
-0.000212744
0.00081283
0.000475449
-0.000241247
-0.000256779
0.00052885
0.00026036
0.00296005
0.00286667
0.0032689
0.00341183
0.0049365
0.00426068
0.00318152
0.00298557
0.00364383
0.00128941
0.00112016
0.000848164
0.00100689
0.00172218
0.00156956
0.00187199
0.00203725
0.00245302
0.00225577
-8.46641e-05
-0.000174473
0.000558716
0.000728446
0.000303706
0.000472898
0.000423072
0.000619674
0.000871955
0.000647301
0.000108223
0.00027846
-0.000172602
-0.000239375
-0.000196285
-0.000257897
-0.000241221
-0.000163194
0.000301232
0.0004985
-2.40755e-05
-0.000261617
-0.000237674
-9.5963e-05
-7.95825e-05
-0.000137091
-0.000124373
0.00378764
0.00408742
0.0505875
0.045848
0.00313035
0.00403254
0.00419751
0.00379989
0.000929486
0.000916579
-0.000257557
-0.000259053
-0.000222637
-0.00022645
0.000168323
0.000178926
-0.000223702
-0.000244339
0.00404045
0.00314212
0.00297935
0.00344277
-2.55033e-05
-9.55042e-05
0.00200171
0.00203153
0.00318258
0.00366483
0.00129428
0.0013194
0.00141628
0.00139427
0.000830125
0.000814972
0.000422623
0.000432611
0.000247453
0.000243234
-0.000110356
-0.000115431
0.00140804
0.00171201
0.00495301
0.00405415
0.0069464
0.00680754
0.0728432
0.0744271
0.00394193
0.0038724
0.00355448
0.00358776
2.00764e-05
1.1231e-05
0.000137068
0.000151695
0.000859442
0.00113032
0.0014591
0.00149365
0.00126387
0.00331391
0.00363366
0.00339439
0.00389503
0.00421316
0.00400833
-0.000168477
-0.000168721
0.0014094
0.00133786
0.00276191
0.00260075
0.0023717
0.00225099
0.00204959
0.00222134
0.00523118
0.00510834
0.00403668
0.00486857
0.000241981
0.000276862
-0.000311847
-0.000349664
0.00872472
0.00905344
0.000524384
0.000340726
0.000826818
0.00111786
0.000560575
0.000370999
0.00551519
0.00483855
0.00335903
0.0041344
0.000118404
0.000145252
0.00127091
0.00109202
0.00133838
0.00120935
0.000346323
0.000371874
0.00153404
0.00155857
0.00235355
0.00236292
0.00349833
0.00349286
0.0859284
0.0834343
0.00414244
0.00410579
0.00149641
0.00649695
0.00182005
0.0017673
-0.000167941
-0.0001428
0.000466954
0.00083296
0.000119721
0.00014103
-9.87673e-05
-0.000197607
0.00182531
0.00191715
0.00112462
0.000842462
0.00491781
0.00404038
0.00469432
0.00399024
0.00324048
0.00213458
0.00201431
0.00259683
0.00241042
0.00515221
0.00396934
0.00326121
0.00386603
0.00290274
0.00417948
0.00254867
-0.000159502
-0.000160879
0.000611628
0.0010878
0.000922708
0.000839743
-8.42935e-05
-0.000167919
-0.000130451
-0.000117228
0.00198493
0.00242655
0.00273175
0.00234679
0.00251472
0.00302919
0.00321276
0.0034877
0.00301094
0.00361538
0.00341469
0.00377269
0.00208047
0.00188807
0.00197339
0.00213632
0.00201988
0.00251905
0.00239047
0.00377447
0.00436805
0.00308977
0.00358938
0.00458264
0.000352517
2.08172e-05
0.00166118
0.00123147
-0.000195049
-0.000261448
-5.04367e-06
-0.00016959
0.000150817
0.000417958
0.00185858
0.00195888
0.0011582
0.00123864
8.5186e-05
-0.000117662
-0.000221899
-0.000256315
-0.000151841
5.63841e-06
0.00262581
0.00254439
0.00309309
0.00294251
0.00319589
0.00306815
0.00655676
0.00893934
0.00291842
0.00277496
0.00372738
0.00412838
0.00138688
0.00154767
0.00110884
0.00094648
0.00222815
0.00205495
-0.000187624
-0.000120033
0.000207823
0.000357342
0.000566487
0.000379399
0.00087816
0.00107094
-4.09026e-05
-0.000152255
8.11461e-05
0.000241837
-0.000238308
-0.000165884
-0.000258925
-0.000205138
-0.000165539
-0.000239559
0.000334658
0.000553063
-0.000251331
-0.000212956
-0.000261244
-0.000236929
5.80111e-06
-0.000110714
0.00397821
0.00378844
0.00287382
0.00410946
0.00395498
0.00387709
0.00345646
0.00348579
0.00179638
0.00158653
0.000492527
0.000364452
-0.000260328
-0.000260329
-0.000260393
-0.000260024
-0.000251939
-0.000259467
0.000125987
0.000115152
-0.00014708
-0.000152598
0.0022191
0.0022142
0.00312955
0.00404945
0.00122236
0.00124331
-0.000198047
-0.000225869
-0.000185917
-0.000216424
8.38049e-05
0.00379242
0.00376717
0.00373614
0.00369964
0.0027284
0.00107941
0.0010991
0.0016389
0.00161538
0.00118585
0.00098774
-0.000147899
-0.000187142
-0.00018164
-0.000176299
0.000969742
0.000953321
0.000387587
0.000381698
-4.63878e-05
-5.19501e-05
0.00398494
0.00396155
0.00151168
0.00125956
0.000430895
0.000459417
0.00547038
0.00541851
0.00667131
0.00575736
0.0702203
0.0711052
0.0489649
0.0498424
0.0070401
0.00715834
0.00305839
0.00308325
0.000639364
0.000877583
0.000105877
0.00018453
0.000182478
0.000168649
0.000276544
0.000204719
0.000685429
0.000905873
0.0570481
0.0906328
0.00197384
0.00171084
0.00344206
0.00302833
0.00268042
0.0026118
0.00392134
0.00396426
0.00333511
0.00283975
0.00354697
7.48611e-05
-3.65038e-05
0.000735119
0.000686016
0.00305277
0.00317331
0.00286757
0.00234331
0.00248963
0.00242453
0.00261148
0.00513656
0.00381296
0.00340542
0.00387671
0.00421763
0.00568043
0.00561628
0.00209356
0.00184934
-0.000309865
-0.000307411
0.000371487
0.000563117
0.00132319
0.00136751
-3.90135e-05
-2.04424e-05
0.00367978
0.00365562
0.000839302
0.00113354
0.00545017
0.00470637
0.00420226
0.00341575
-8.16482e-05
-7.05298e-05
0.000182832
0.000210839
0.00109514
0.00127343
0.0606799
0.0603372
0.0456706
0.0638733
0.00321346
0.00363546
0.00158542
0.0016148
0.00197574
0.00196756
0.00352133
0.00353608
0.00318756
0.00317486
0.0863863
0.0863004
0.00360694
0.00398318
0.00152498
0.00145048
0.00211454
0.00247558
0.000759599
0.000697806
0.000165599
0.000124517
0.000391669
0.000718642
-9.27724e-05
-0.000198248
0.00200932
0.00167541
0.00118955
0.000909553
0.00298956
0.00273906
0.00299605
0.00229755
0.00253839
0.00237196
0.00192461
0.00236431
0.00220701
0.00299361
0.00285936
0.00253095
0.00251081
9.27004e-05
8.88237e-05
-0.000110108
-0.000180588
-0.000160288
-6.89017e-05
-3.67939e-05
-5.65088e-05
0.000953448
0.00106847
0.00221737
0.00209685
0.00283572
0.00300903
0.00264885
0.00260809
0.0024504
0.00264008
0.00271855
0.0030477
0.00268239
0.00283081
0.00417843
0.00540382
0.00624737
0.00517799
0.00602562
0.00196502
0.00169605
0.00181208
0.00245089
0.00225752
0.00295623
0.00281685
0.00307638
0.00383519
0.00342252
0.00494403
0.00382013
0.00323782
0.00375809
0.000338631
4.27565e-06
-0.000221642
-0.000236385
-0.000247411
-0.000261372
-0.000173194
-0.000148199
8.48319e-05
1.41106e-05
-0.000162848
0.000511715
0.000201656
0.00165549
0.00175852
0.000720433
0.000658721
-0.000100158
0.000121669
0.00247206
0.00239385
0.00278489
0.0029608
0.0028202
0.00271664
0.0039738
0.0035552
0.00569706
0.00539151
0.00674302
0.00908302
0.00420987
0.00502451
0.00465904
0.00343679
0.00132356
0.00147968
-0.000113812
-0.00018634
0.00039255
0.000237875
0.000603082
0.000776955
0.000676679
0.000470835
0.000816182
0.00100546
-2.12913e-05
-0.000141574
-0.000260861
-0.000224699
-0.000259747
-0.000212828
0.000373439
0.000611054
-0.000249074
-0.000206666
-0.000262897
-0.000258326
0.0030694
0.00413136
0.00335441
0.00332017
0.0294063
0.0313177
0.0374656
0.0354653
0.0105935
0.00899848
0.00114063
0.0013384
0.00078182
0.00079408
0.000664564
0.00079661
0.000297786
0.000284896
-0.000240771
-0.000243967
-0.000133709
-0.0001406
-0.000253991
-0.00025587
-0.000230194
0.000238345
0.000226762
0.00013661
-0.000256683
-0.000255397
-0.000248614
-0.000246544
0.0516821
0.052173
0.00104404
0.00104194
0.00122589
0.00100765
0.0425298
0.0457805
0.00201316
0.00178222
0.00118105
0.00116071
0.000586649
0.000753136
-0.000190079
-0.000219695
-0.000172427
-0.000205658
0.00250257
0.0025442
0.00318882
0.00269138
0.00208647
0.00184424
0.00146317
0.0014903
0.00100527
0.00102315
-0.000167266
-0.000201591
-0.000132859
-7.07427e-05
0.000747157
0.000760708
0.000253622
0.000395027
-0.000171103
-0.000166213
-2.95523e-05
-3.52377e-05
0.00186688
0.00188103
0.00274095
0.00270006
0.00131264
0.00157742
0.00178043
0.000916004
0.000933115
0.00186068
0.0018262
0.00624598
0.00610786
0.0165278
0.0182312
0.0649241
0.0635791
0.0672989
0.0661601
0.0823069
0.0813416
0.0156965
0.0485306
0.0064365
0.00634158
0.00671054
0.00687141
-0.000101767
-0.000107136
0.000495148
0.000654474
0.0001095
9.38361e-05
0.000943523
0.000954847
0.000308233
0.000236409
0.000166778
0.000152561
0.00032231
0.000336954
0.0027363
0.00223085
0.0887286
0.0859342
0.00359472
0.00403982
0.00294093
0.00278068
0.00261242
0.00298803
0.00272275
0.00349207
0.0032031
0.00370095
0.00440093
0.0024545
0.00157641
0.0015088
0.00056543
0.000803583
0.000763765
0.000390512
0.00126982
0.000977918
0.00270011
0.00286829
0.00164726
0.00150052
0.00228888
0.00214131
0.0027049
0.00260432
0.00235503
0.00332485
0.00301975
0.00328524
0.00485279
0.00315605
0.00282672
0.00317511
0.0344283
0.0374571
0.000391066
0.000428865
0.0017085
0.00168743
-0.000198856
-0.000240301
0.00358861
0.00353275
0.00174116
0.0017933
1.80926e-08
-1.04012e-05
0.0124915
0.0334238
0.00370622
0.00369539
0.000551218
0.000363014
0.000611244
0.000415812
0.0038757
0.0042689
0.00509913
0.00522579
0.00360062
0.00441721
0.000588138
0.000615243
1.03241e-05
3.16194e-05
0.000241452
0.000273807
0.000718305
0.000704438
0.000210949
0.000212453
0.0542943
0.0575874
0.0614828
0.00360461
0.00319288
0.000403826
0.000383154
0.00190987
0.00188988
0.00182043
0.00181117
0.00283719
0.00283799
0.083993
0.0845959
0.00280745
0.00276837
0.00399423
0.00397174
0.00433897
0.00656265
0.0101933
0.0143342
0.00125099
0.00117056
0.0019878
0.00236318
0.00042004
0.000807697
6.02792e-05
1.71441e-05
0.000353365
0.000661946
-7.02663e-05
-0.000197218
0.00160112
0.00152618
0.00720793
0.00967134
0.00349216
0.00224234
0.0019302
0.00148244
-0.000174632
-9.79933e-05
-8.90291e-05
0.00141047
0.00129509
0.00283893
0.00259348
0.00422508
0.00513013
0.00539284
0.00234731
0.00211427
0.0023588
0.00322401
0.00495221
0.00544814
0.00723142
0.00785544
0.00952443
0.00206301
0.00177785
0.00260018
0.00277944
0.00290204
0.00267367
0.00326681
0.00277499
0.00265774
0.00456585
0.00300347
0.00113915
0.000771356
0.000996254
0.00201137
0.00251609
-0.000256568
-0.000211069
-0.000100118
0.000224539
-0.000259733
-0.000161762
4.57164e-05
-0.000167949
0.000603386
0.000273678
-2.5608e-05
-0.000177514
0.00141913
0.00133918
0.00253454
0.00243106
0.00217195
0.00209982
0.00232241
0.00247046
0.00262338
0.00313878
0.00330995
0.00382822
0.00418347
0.0132813
0.0110034
0.00459668
0.00283214
0.00304856
0.00391728
0.000208537
5.71242e-05
-0.000104933
-0.000183266
0.00051841
0.000684022
0.000738214
0.000524021
-0.000261188
-0.000228738
0.000124855
-4.11146e-05
0.00269542
0.00271703
-0.000258004
-0.000239301
0.000982776
0.000958238
-0.000165928
-0.000165942
0.00240155
0.00242658
0.0474897
0.034853
0.0229757
0.0252494
0.00378422
0.00343546
0.0336099
0.00354714
0.00351514
0.00129562
0.00110122
0.00151901
0.00154243
0.00236251
0.00233289
0.00108416
0.00107191
0.000377207
0.000508303
-0.000136494
-7.96716e-05
-0.0002614
-0.000262261
-0.000246889
-0.000195249
-0.000147713
-0.000233846
-0.000237389
0.000361026
0.000348607
-4.50795e-05
3.79159e-05
-6.68941e-05
-7.37151e-05
-0.00022706
-0.000230322
0.00281556
0.0028702
0.00129966
0.0013022
0.00198892
0.00200273
0.00145934
0.00309597
0.00408447
0.00255097
0.00258876
0.000865779
0.00105047
0.00140475
0.0016147
-0.000201934
-0.000228806
0.000275169
0.000159896
-0.000141553
-0.000146604
-0.00017715
-0.000209441
-0.000125304
0.00386691
0.0038495
0.0032944
0.00336256
0.00186849
0.00189234
0.0018021
0.00175877
0.00143935
0.00166321
0.000226833
0.000216571
-0.000155133
-0.000192372
-9.35134e-05
0.00058707
0.000599019
0.000721609
0.000709835
0.000553819
-0.000120814
-0.000126486
0.000163934
0.000156588
-4.08326e-05
0.00346752
0.0041165
0.00320415
0.00315502
0.00210057
0.00239711
0.00185684
0.00181531
0.00475839
0.00481575
0.0410957
0.0681074
0.00627497
0.00788879
0.00770782
0.00673009
0.00671674
0.00543897
0.00549219
0.00653317
0.00639178
0.0623834
0.0262577
0.0788398
0.0782561
0.0480101
0.0475466
0.083342
0.072055
0.00680317
0.00684004
0.00716809
0.00705544
0.00264684
0.00268901
0.0003482
0.000356297
0.000865851
0.000872104
0.000269191
0.00037215
0.000107372
0.00016772
0.000165008
0.00016478
0.000192102
0.000114669
0.000336847
0.000496612
0.00555045
0.00547049
0.000198861
0.000185375
0.000837703
0.00110908
0.000386133
0.000481923
0.00106011
0.00110572
0.0773461
0.0351334
0.056719
0.00134858
0.00131809
1.70517e-05
2.51184e-07
0.00220127
0.00201496
0.00208087
0.00249028
0.00432202
0.00520292
0.00251176
0.00434564
0.00414857
0.00411541
-0.000148999
-0.000151367
-1.4939e-05
0.000107064
0.000326669
0.000297066
-7.32944e-05
-0.000171354
0.000350105
0.000288216
0.00145329
0.00112915
0.00323561
0.00412976
0.00198524
0.00186344
0.00159518
0.00146231
0.00289447
0.00266304
0.0024712
0.00220745
0.00240294
0.00213325
0.00247442
0.00258403
0.00332281
0.00286436
0.00350005
-6.73389e-05
2.50531e-05
-0.000200324
0.00394814
0.0025872
0.00242264
-0.000346456
-0.000347412
0.00111295
0.000894765
0.000477193
0.00071347
0.00336109
0.00364137
0.000430433
0.000416442
0.00290108
0.00285579
0.0022619
0.00232498
0.000838337
0.000858689
-2.90369e-05
-1.86962e-05
0.00126388
0.000967792
0.00375665
0.00371264
0.00263957
0.00321699
0.000541815
0.000355095
0.00151429
0.00189446
0.000632538
0.000435238
0.000945143
0.00073893
0.00499326
0.00504734
0.0646424
0.0646436
0.00512647
0.00611494
0.00526927
0.0061323
0.0068825
0.00727366
0.000723035
0.000783188
-2.76381e-05
-9.80048e-06
0.000340501
0.000307645
0.000573185
0.000587233
0.000316308
0.000314584
0.00164179
0.00150351
0.002126
0.00235174
0.00285455
0.00257153
-0.000116102
-0.000117549
0.00215502
0.00221624
0.00167773
0.00166791
0.00198552
0.00199679
0.00314959
0.00315549
0.0851533
0.0855003
0.00329674
0.00333697
0.00291528
0.00289684
0.00406118
0.00402517
0.00770579
0.00884673
0.00147534
0.00143136
0.00145292
0.00119089
0.0013569
0.00186755
0.00176329
0.000467746
0.00084642
9.94282e-05
0.00551256
0.00147986
0.00155793
-0.00018316
-0.000227655
-0.000198935
0.00175178
0.0021213
0.00153034
0.00162602
0.00276373
0.00351621
0.00507465
0.00280144
0.00433044
0.0092528
0.0123554
0.00355934
0.00415812
0.00754454
0.00163953
0.00156227
0.00311703
0.00339069
0.00296095
0.0027461
0.0032684
0.00347178
0.00468226
0.00389298
0.00391111
0.00114267
0.000767402
0.00192868
0.00239056
-0.000259536
-0.000203975
0.00019591
-9.98321e-05
-2.47399e-05
-0.000200863
-0.000262117
-0.000184817
0.000237524
0.000549233
0.00255804
0.00265337
0.00203327
0.00217717
0.00270039
0.00278669
0.0032877
0.00353497
0.00769754
0.00585417
0.00264861
3.57122e-05
0.0001784
-7.20758e-05
-0.000168392
0.000431255
0.000270058
-0.000238288
-0.000162297
0.00246411
0.00248853
-0.000144616
-7.80277e-05
-0.000255623
-0.000264241
0.000625427
0.000807036
0.00367022
0.00406398
0.000480371
0.00047204
0.00427406
0.00425283
0.00103341
0.0010375
0.0030036
0.00302026
0.00247408
0.00425876
0.0285967
0.0270812
0.0474743
0.0273796
0.0318507
0.0301935
0.00337589
0.00350749
0.00127468
0.0010819
0.00131683
0.00112079
0.00253067
0.00249399
0.00141409
0.00139978
0.00124554
0.00123271
0.000643021
0.00062719
4.39001e-05
6.38479e-05
0.000252263
0.000147065
-0.000220715
-0.000183473
-0.000259234
-0.000259897
-0.000189927
-0.000184647
0.000249831
0.000373512
-0.000174094
-0.000179371
-0.000135878
-0.000130212
-0.000193658
-0.000198053
0.033541
0.0344767
0.00545496
0.00549417
0.00157374
0.00157674
0.0012328
0.00101096
0.00121672
0.00100359
0.0040714
0.00310641
0.00224016
0.00226073
0.00264735
0.00305747
0.00103163
0.000848501
0.00156616
0.00136023
0.000221669
0.000112632
0.000600121
0.000768652
0.000178586
0.000296254
-8.36107e-05
-1.15308e-05
-0.000151543
-0.000194102
-6.45169e-05
1.05011e-05
-0.000181639
-0.000213018
0.00161487
0.00158472
0.00354738
0.00360304
0.00279099
0.0028515
0.00354075
0.00307686
0.00104132
0.00106016
0.00152074
0.00155335
0.000890765
0.000875789
0.000348801
0.000338099
-0.000161477
-0.000197137
0.000277185
0.000285662
0.000921491
0.000906002
0.000142472
0.000135967
-5.771e-05
-6.37497e-05
0.0001494
4.08088e-05
0.00228627
0.00230484
0.00333912
0.00334842
0.00278246
0.00325061
0.00219683
0.00247733
0.00154232
0.00128488
0.00069281
0.000707972
0.000992474
0.00101659
0.000893226
0.000987073
0.00279429
0.00273958
0.00507163
0.00413892
0.00670953
0.00672596
0.0747657
0.0738208
0.0062437
0.00606384
0.0257379
0.0252683
0.0268578
0.0275502
0.00693078
0.00713809
0.0155105
0.0153448
0.00615227
0.00605313
0.00516097
0.00508416
0.00344476
0.00352799
0.00212632
0.00218454
0.00104717
0.00128659
0.000496368
0.000487436
0.000635549
0.000630816
0.000502058
0.0006617
-1.30701e-05
-3.07273e-07
7.7617e-05
7.71375e-05
0.000201253
0.000125191
0.000468713
0.000461943
0.000361092
0.000348529
0.000706327
0.000967101
0.000220157
0.000291827
0.000515218
0.000669876
0.000500044
0.000406776
0.000822829
0.000801763
0.00602483
0.0137376
0.00740702
0.00623443
0.0355836
0.0012906
0.00143109
0.00703652
0.00808389
0.00101932
0.000943122
0.00475038
0.00556463
0.00156843
0.00177535
0.00239789
0.00226057
0.00234395
0.00249487
0.00249613
0.00223153
0.00345526
0.00306151
0.00408397
0.00421986
0.00253638
0.00246052
0.000388082
0.000249767
0.00124671
0.00106751
0.000294941
0.000253324
-0.000153398
-0.000150922
-0.000172003
-0.000129346
0.00079067
0.000424936
8.05777e-05
3.15685e-05
0.00203856
0.00265802
0.00110835
0.00150396
0.00328426
0.00409595
0.00171436
0.0017698
0.00166574
0.0014258
0.00243343
0.00226356
0.00218554
0.00196697
0.00189902
0.00198954
0.00214189
0.00231794
0.00402935
0.0040409
0.0048999
0.00533524
0.00616064
0.00357402
0.00437763
-0.000245433
-0.000334119
0.00377673
0.00386241
0.0023156
0.00239484
0.000204257
0.000355552
-0.000243392
-0.000238223
-0.000315986
-0.000351219
0.0197134
0.0223939
0.00027702
0.000427339
0.00332343
0.00328644
-8.97271e-05
-9.76954e-05
0.000398271
0.000384762
0.00499113
0.00514865
0.00476175
0.00470153
0.00130061
0.00171452
0.000879469
0.00090068
0.000117347
0.000107603
0.0036578
0.00515959
0.00256114
0.00308047
0.00132227
0.00101342
0.00494814
0.00470605
0.00304086
0.00301131
0.000791816
0.00107327
0.00053314
0.00034783
0.00287133
0.00352109
0.00187034
0.00149495
0.000621956
0.00042545
0.000724202
0.000522363
0.00522955
0.00445094
0.0108165
0.0112755
0.000947973
0.000682426
0.00505347
0.00602444
0.00519824
0.00616958
0.00526966
0.0012709
0.00129742
0.000693931
0.000751785
9.29879e-05
7.00699e-05
0.000925057
0.000768286
0.000456655
0.000465648
-3.46672e-05
-3.4647e-05
0.00115499
0.00116258
0.00138067
0.00124956
0.00136094
0.00122939
0.001754
0.00193048
0.0028994
0.0025935
0.0343634
0.0712534
0.00405057
0.0055879
-0.000161972
-0.000162062
0.00231409
0.00237421
0.00134779
0.00132985
0.00221305
0.002233
0.00187224
0.00185665
0.00257302
0.00256965
0.00563441
0.00563459
0.00565982
0.00563114
0.00929933
0.00998141
0.00298893
0.00302171
0.00322029
0.00320258
0.00589248
0.00591544
0.0194777
0.0158668
0.0077231
0.00161068
0.00170706
0.00127116
0.00120959
0.000762244
0.000690036
-0.00023341
-0.000232724
-0.000229398
0.00294066
0.00257833
0.00250166
0.00204915
0.00179808
0.00340829
0.0161829
0.0135512
0.0070586
0.00616329
0.0058747
0.00696262
0.00217979