/*--------------------------------*- C++ -*----------------------------------*\
  =========                 |
  \\      /  F ield         | OpenFOAM: The Open Source CFD Toolbox
   \\    /   O peration     | Website:  https://openfoam.org
    \\  /    A nd           | Version:  7
     \\/     M anipulation  |
\*---------------------------------------------------------------------------*/
FoamFile
{
    version     2.0;
    format      ascii;
    class       volScalarField;
    location    "0.1";
    object      p;
}
// * * * * * * * * * * * * * * * * * * * * * * * * * * * * * * * * * * * * * //

dimensions      [0 2 -2 0 0 0 0];

internalField   nonuniform List<scalar> 
238806
(
6.59287e-07
6.55408e-07
-6.99468e-08
8.8723e-08
9.78131e-10
5.91929e-07
6.00131e-07
6.85718e-07
7.58763e-07
1.39418e-07
1.61539e-07
2.26656e-07
6.72515e-08
6.31517e-08
-1.02977e-07
-1.18012e-07
1.13348e-07
7.28435e-08
2.11982e-06
2.13685e-06
8.56268e-08
7.57207e-08
-1.01635e-07
-6.93791e-08
-4.07281e-08
7.48872e-08
1.74631e-08
6.94195e-08
-2.29596e-08
-1.12886e-07
1.8886e-06
2.09758e-06
4.29875e-08
6.45685e-08
1.27586e-07
1.42312e-07
3.33996e-10
2.96498e-10
1.16216e-07
2.43794e-07
1.88102e-07
-3.20227e-08
2.34656e-06
2.58048e-06
1.90839e-06
1.8893e-06
-5.2622e-08
-3.7327e-08
8.64498e-08
1.07896e-07
2.61225e-07
2.7179e-07
7.44414e-08
6.97725e-08
-1.46868e-10
-1.49492e-10
1.49915e-07
4.34025e-08
1.36526e-07
2.13025e-07
1.55995e-07
3.09829e-07
1.85893e-07
2.52965e-07
2.94255e-07
1.7016e-06
1.70311e-06
8.64406e-07
7.75082e-07
4.31576e-07
3.83541e-07
5.85374e-08
3.96285e-08
1.04912e-07
8.34945e-08
1.9668e-07
1.82382e-07
1.27199e-07
1.41722e-07
9.1715e-10
9.17696e-10
5.96304e-08
8.82096e-08
1.02544e-06
1.08249e-06
3.75444e-07
3.35626e-07
2.31237e-08
-5.55665e-08
6.15845e-08
2.42664e-08
3.10582e-07
1.97959e-07
1.95091e-06
1.89885e-06
2.48579e-07
2.76174e-07
1.42314e-07
1.06878e-07
-1.96811e-08
1.68006e-06
8.73665e-07
8.23885e-07
7.37732e-07
7.40557e-07
3.05355e-08
2.41056e-08
9.04387e-08
7.33094e-08
6.19753e-08
4.09098e-08
1.88864e-07
2.11163e-07
2.42392e-07
2.32397e-07
7.06637e-08
7.82224e-08
2.78521e-10
2.97698e-10
1.78628e-10
-1.33724e-07
-1.27992e-07
8.46872e-07
7.98705e-07
6.60771e-07
6.6934e-07
-1.28351e-07
-1.49642e-07
-4.19546e-09
-1.47362e-09
2.5378e-07
-1.07835e-08
4.2217e-08
-4.50965e-08
1.13574e-07
2.60499e-07
1.79293e-06
2.01207e-06
-2.47871e-07
-7.75731e-08
-1.29636e-07
-7.9687e-08
1.80835e-07
1.24083e-06
9.95079e-07
1.11129e-06
1.05096e-06
7.34115e-07
7.7664e-07
5.15667e-07
4.80663e-07
3.25349e-07
3.04949e-07
2.03142e-08
1.15717e-08
7.08717e-08
5.88437e-08
5.6079e-08
3.90906e-08
7.78747e-08
6.91787e-08
1.77059e-07
1.65547e-07
2.71078e-07
2.60516e-07
1.23445e-07
1.37923e-07
1.17507e-09
1.17084e-09
3.31332e-10
2.95143e-10
5.43583e-08
7.89678e-08
-5.20954e-08
-4.0643e-08
-2.21691e-08
9.5387e-07
8.99795e-07
2.93325e-07
2.80181e-07
-1.14338e-07
-1.40131e-07
-7.15326e-08
6.59635e-08
-1.70364e-08
3.62695e-08
9.98333e-07
9.13817e-07
2.17401e-06
2.43409e-06
2.32798e-06
2.56725e-06
9.77748e-07
8.15138e-07
1.38846e-07
-1.56065e-09
1.45431e-07
-4.72651e-08
-6.44728e-08
3.43447e-10
-7.08266e-08
2.03236e-06
2.08388e-06
1.10743e-06
1.0474e-06
9.75698e-07
8.64896e-07
3.27618e-07
2.92354e-07
4.27601e-07
4.59946e-07
-6.09198e-08
-6.75701e-08
3.70663e-09
-3.78714e-09
9.15439e-09
2.24321e-08
1.31116e-08
2.7412e-08
7.79031e-08
9.72596e-08
1.88279e-07
1.70928e-07
2.07816e-07
2.4457e-07
2.34794e-07
2.42667e-07
1.26358e-07
1.41035e-07
2.77209e-09
2.99679e-09
7.30057e-10
7.50237e-10
2.33456e-10
2.10873e-10
3.58037e-10
3.52727e-10
3.50373e-07
4.02324e-07
3.49445e-08
1.01534e-07
-1.3116e-07
-1.41597e-07
-5.48453e-09
-4.75459e-09
7.479e-07
7.04424e-07
3.48659e-07
3.65555e-07
2.90116e-07
2.64181e-07
1.37715e-07
1.49456e-07
2.07607e-09
5.41792e-09
4.85928e-08
1.09539e-07
1.86081e-06
2.20279e-06
2.08051e-06
2.35641e-06
1.88461e-06
2.10106e-06
1.80661e-07
1.8262e-07
8.13833e-07
9.06555e-07
1.86327e-07
2.13026e-07
-1.65859e-08
-3.29717e-08
2.39386e-07
-5.81543e-08
-2.80827e-09
1.75519e-07
1.23394e-07
1.84895e-06
1.78691e-06
1.40714e-06
1.33026e-06
9.32253e-07
9.86169e-07
5.72941e-07
6.1253e-07
5.76642e-07
5.80856e-07
4.45111e-07
4.30428e-07
-1.60674e-08
-1.30361e-08
-4.58368e-08
-5.5437e-08
4.55761e-09
-2.27864e-09
9.74876e-11
-9.88982e-09
2.2299e-08
5.55183e-09
2.11419e-08
3.81149e-10
5.25841e-08
3.72825e-08
6.75179e-08
6.86159e-08
1.36546e-07
1.1779e-07
1.93374e-07
1.86525e-07
2.18637e-07
1.99767e-07
7.33072e-08
7.51567e-08
1.10727e-07
1.13425e-07
1.03928e-07
9.38566e-08
8.78547e-10
8.49121e-10
1.92531e-09
2.0573e-09
8.6029e-10
8.10822e-10
8.7635e-10
8.7799e-10
1.40442e-10
1.28032e-10
3.58869e-10
3.64239e-10
2.91091e-10
4.99691e-08
7.56803e-08
-1.08812e-07
-1.05157e-07
-2.02312e-10
-2.03105e-10
3.20797e-08
3.48001e-08
-3.6216e-08
-2.80552e-08
7.0071e-07
6.56034e-07
7.33739e-07
7.29978e-07
3.11297e-07
3.26665e-07
2.53226e-07
2.4161e-07
-2.3072e-07
-6.83202e-08
-1.16289e-07
-6.23925e-08
4.31198e-07
5.67026e-07
1.31601e-06
1.99047e-06
1.45602e-06
1.21224e-06
1.15002e-06
2.12359e-06
1.91074e-06
2.21338e-07
2.24001e-07
4.20755e-07
5.28417e-07
5.98373e-07
8.2446e-07
-2.22365e-07
-3.71777e-08
-8.3957e-08
3.01114e-07
3.03605e-07
2.05164e-08
8.20932e-08
1.98533e-07
-2.36824e-08
2.28162e-07
5.93487e-08
7.57531e-07
6.67969e-07
1.82411e-06
1.9516e-06
1.3572e-06
1.34765e-06
1.39429e-06
1.24293e-06
1.22706e-06
1.06431e-06
1.9011e-07
1.82244e-07
2.56612e-07
2.87953e-07
6.53595e-07
6.43684e-07
7.16173e-07
6.88217e-07
4.55605e-07
4.53604e-07
4.0911e-07
3.81711e-07
2.80546e-07
2.52865e-07
-6.31131e-08
-5.64113e-08
3.98146e-08
4.66475e-08
4.88268e-09
-1.27682e-09
2.05849e-09
-7.21226e-09
-7.50558e-09
-2.09956e-08
-2.16266e-08
-3.91986e-08
4.97107e-08
3.59898e-08
7.46814e-08
7.86644e-08
1.24506e-07
1.08147e-07
2.08128e-07
2.16451e-07
1.35729e-07
1.376e-07
1.03058e-07
1.14404e-07
9.95694e-08
1.02021e-07
1.15092e-07
9.32131e-10
9.05566e-10
2.81731e-09
3.04576e-09
1.56108e-09
1.46378e-09
1.45401e-09
1.54491e-09
7.40247e-10
7.14735e-10
4.4363e-10
4.80522e-10
1.54988e-10
1.39067e-10
2.7134e-10
2.65338e-10
7.24354e-10
7.44098e-10
3.49808e-08
1.79172e-07
3.75531e-08
-3.01612e-08
-2.42306e-08
-2.09783e-07
-1.26704e-07
-1.56808e-07
-1.29484e-07
-1.40019e-10
-1.45824e-10
1.17355e-09
1.37167e-09
-3.71864e-08
-3.43185e-08
-3.3109e-08
-3.51767e-08
-1.22121e-07
-1.40046e-07
6.96215e-07
8.46499e-07
6.35606e-07
6.215e-07
4.21826e-07
4.29402e-07
3.2599e-07
1.64658e-07
1.33426e-07
1.98386e-07
-6.07127e-09
-1.15909e-07
-2.45148e-08
-7.65169e-08
1.20081e-06
2.11397e-06
1.7445e-06
1.72911e-06
1.64876e-06
1.63414e-06
1.59174e-06
2.29218e-06
2.53552e-06
1.48114e-07
1.49603e-07
2.1553e-07
1.94972e-07
2.72118e-07
2.45374e-07
8.51205e-07
7.51111e-07
1.55196e-07
1.76795e-07
8.9548e-08
1.96447e-08
2.93936e-08
-5.48198e-08
-2.37805e-07
-8.65491e-08
-1.37593e-07
-8.27871e-08
-1.55298e-08
9.2831e-08
5.43991e-07
5.87144e-07
1.1959e-06
1.15382e-06
1.63707e-06
1.57149e-06
1.323e-06
1.48654e-06
1.77513e-06
1.69145e-06
1.18239e-06
1.24973e-06
2.15143e-07
2.13634e-07
3.63825e-07
3.23547e-07
4.78366e-07
5.44228e-07
5.11497e-07
5.14363e-07
6.48243e-07
5.8673e-07
3.57219e-07
3.57925e-07
3.83424e-07
3.95786e-07
2.74448e-07
2.91819e-07
-3.96298e-08
-4.41164e-08
-1.20291e-07
-9.78006e-08
5.04517e-08
5.99824e-08
2.57137e-08
3.28493e-08
1.15147e-08
1.86178e-08
1.14855e-08
2.11656e-08
3.09373e-09
-5.15265e-09
-3.75341e-09
-1.61921e-08
-1.60744e-08
-3.17329e-08
6.35198e-08
7.70041e-08
4.65824e-08
3.43876e-08
9.91456e-08
1.0178e-07
8.59686e-08
9.33277e-08
1.13174e-07
9.88046e-08
1.43155e-07
1.66358e-07
1.39283e-07
1.35135e-07
2.47191e-07
2.50948e-07
1.62612e-07
1.70675e-07
1.3441e-07
1.26618e-07
1.14634e-07
1.03174e-07
8.50022e-08
7.68389e-08
1.35051e-09
1.33787e-09
8.38705e-10
8.69678e-10
1.95468e-09
2.08188e-09
1.11333e-09
1.11193e-09
8.34372e-10
8.84851e-10
9.46934e-10
9.30197e-10
5.20677e-10
4.74561e-10
2.40273e-10
2.56944e-10
1.53652e-10
1.6931e-10
2.04921e-10
2.09474e-10
3.4147e-10
3.01614e-10
5.14413e-10
4.54625e-10
3.77488e-10
3.73045e-10
-6.4454e-08
-2.88611e-08
3.60565e-07
2.08563e-07
-4.87314e-08
-4.59533e-08
2.87935e-08
6.27429e-09
-2.46505e-08
-3.34655e-10
-1.09685e-07
-9.98943e-08
-1.25273e-10
-1.28049e-10
-1.85314e-11
1.17424e-11
-2.8625e-09
-3.28909e-09
-6.16563e-09
-5.38807e-09
-1.71041e-08
-1.90513e-08
-3.42651e-08
-4.3012e-08
-2.13167e-08
-4.09296e-08
5.74914e-07
4.64652e-07
8.25948e-07
9.50394e-07
9.86178e-07
1.0842e-06
5.77362e-07
6.46938e-07
4.71526e-07
4.81689e-07
3.01521e-07
3.31922e-07
2.33164e-07
2.32128e-07
-1.02848e-07
-1.29246e-07
9.43021e-08
8.62772e-08
3.34468e-08
8.40812e-09
-2.28093e-08
2.47869e-07
1.57811e-07
1.16331e-06
1.08868e-06
1.89158e-06
1.49627e-06
1.46501e-06
1.41307e-06
2.23912e-06
2.48553e-06
1.34334e-07
1.35634e-07
2.53335e-07
2.29392e-07
1.99942e-07
2.02172e-07
6.57512e-07
7.26674e-07
9.47774e-07
1.08763e-06
-1.47233e-08
3.08649e-08
-1.37721e-07
8.70606e-09
9.73959e-08
9.42227e-08
2.06517e-07
-2.20231e-08
3.06614e-07
2.88905e-07
2.43113e-07
6.3117e-08
7.22688e-09
-9.44294e-08
1.01006e-08
6.72162e-07
6.14161e-07
1.69502e-06
1.55332e-06
1.51328e-06
1.52151e-06
1.5814e-06
1.40651e-06
2.58781e-07
1.75341e-07
2.55291e-07
2.62571e-07
2.24923e-07
4.73408e-07
5.29694e-07
5.64764e-07
4.98067e-07
6.23945e-07
7.28537e-07
6.13002e-07
6.36352e-07
4.88915e-07
5.23226e-07
3.04472e-07
3.12975e-07
4.02661e-07
4.03933e-07
3.50174e-07
3.1342e-07
-2.05659e-08
-2.43474e-08
-4.49393e-08
-3.97869e-08
-8.39348e-08
-9.37001e-08
-5.8034e-08
-6.6038e-08
3.24424e-08
4.34974e-08
4.66544e-08
5.51474e-08
2.73302e-08
3.52837e-08
1.7656e-08
1.12029e-08
1.05872e-08
2.1427e-08
-1.34453e-09
-1.25215e-08
-1.05958e-08
-2.55967e-08
6.81245e-08
8.34116e-08
8.20942e-08
8.65227e-08
7.09696e-08
6.32541e-08
1.53407e-07
1.39898e-07
1.5093e-07
1.29359e-07
1.59473e-07
1.49788e-07
1.99132e-07
1.9775e-07
2.23796e-07
1.66982e-07
1.63146e-07
1.5112e-07
1.75295e-07
9.30808e-08
9.30946e-08
1.12217e-07
1.24791e-07
8.21247e-08
9.10544e-08
2.10903e-08
2.24835e-08
1.34741e-09
1.34568e-09
8.98833e-10
9.09477e-10
1.21109e-09
1.22853e-09
2.1883e-09
2.03645e-09
1.51057e-09
1.61173e-09
1.46079e-09
1.55492e-09
7.48694e-10
7.01534e-10
6.90842e-10
6.98056e-10
5.37266e-10
5.1837e-10
5.39405e-10
5.68487e-10
4.88132e-10
5.21647e-10
2.7733e-10
2.92334e-10
1.94192e-10
1.75949e-10
2.1448e-10
2.16972e-10
2.58755e-10
2.58939e-10
2.18103e-10
2.22756e-10
3.38167e-10
2.99107e-10
3.4491e-10
3.0545e-10
5.50265e-10
5.1978e-10
2.94852e-10
1.41635e-10
2.53164e-10
-1.52511e-08
-1.91715e-08
3.98485e-07
2.41956e-07
4.30759e-07
4.36567e-07
3.85928e-07
4.4795e-07
6.58991e-07
-5.46249e-08
-4.83955e-08
2.25288e-08
4.02469e-08
9.66836e-09
2.86946e-08
-6.47884e-08
-9.42705e-08
-2.64939e-08
-4.07457e-08
6.99386e-09
5.67737e-09
-5.78048e-11
-5.32085e-11
-1.3139e-10
-1.34499e-10
-1.54525e-10
-1.57642e-10
-7.86842e-11
1.03835e-11
8.47896e-09
9.11668e-09
6.94635e-10
9.67649e-10
-3.70152e-09
-3.16241e-09
-4.6644e-09
-4.00983e-09
-2.24435e-08
-2.02564e-08
-3.83249e-08
-1.95275e-08
-4.30081e-08
-4.0618e-08
-3.47819e-08
2.99136e-07
3.5395e-07
7.0836e-07
4.99738e-07
8.15632e-07
9.69431e-07
7.34071e-07
6.47129e-07
6.82254e-07
7.16461e-07
4.64573e-07
4.92912e-07
3.07248e-07
3.02466e-07
3.7687e-07
4.23149e-07
1.83178e-07
1.89426e-07
-7.14113e-08
-7.86494e-08
1.1984e-07
1.14568e-07
6.42845e-09
7.14505e-08
2.29838e-07
1.29345e-07
1.25649e-06
1.34148e-06
1.11888e-06
1.1013e-06
1.38957e-06
1.22168e-06
2.06356e-06
1.84257e-06
1.63545e-07
1.65211e-07
2.07456e-07
1.87943e-07
3.17421e-07
4.1815e-07
6.65348e-07
6.00631e-07
1.01075e-06
1.11337e-06
1.13537e-07
9.87957e-08
-7.95676e-08
-9.78079e-08
-7.82104e-08
-1.50027e-07
7.15464e-08
6.45335e-08
2.12008e-08
1.7241e-09
-8.03625e-08
-7.0962e-08
2.25838e-07
1.87368e-07
-5.05925e-08
1.6687e-09
1.39608e-06
1.67908e-06
1.28247e-06
1.23e-06
1.46951e-06
1.29992e-06
1.50178e-06
1.58316e-06
3.14046e-07
3.06577e-07
3.02129e-07
4.13799e-07
4.65972e-07
5.76901e-07
5.09967e-07
7.418e-07
7.34024e-07
5.59417e-07
5.83575e-07
3.17551e-07
3.18061e-07
3.42172e-07
3.65486e-07
-3.99361e-08
-3.56869e-08
-4.9216e-08
-5.4669e-08
-9.13503e-08
-7.95521e-08
-5.30515e-08
-4.57632e-08
-6.55677e-08
5.45132e-08
6.52499e-08
4.28724e-08
3.6799e-08
1.14525e-08
1.93877e-08
2.2251e-08
1.02547e-08
1.79254e-09
2.09605e-08
1.09807e-07
1.12847e-07
5.93232e-08
5.31586e-08
8.46163e-08
7.81155e-08
1.13611e-07
1.04203e-07
1.54143e-07
1.69449e-07
1.43501e-07
1.35311e-07
1.55315e-07
1.57915e-07
2.79306e-07
2.82766e-07
2.8218e-07
2.78069e-07
1.99073e-07
1.84688e-07
1.82902e-07
8.41228e-08
8.42612e-08
1.19135e-07
1.33457e-07
8.65084e-08
9.60025e-08
1.34871e-09
1.3426e-09
1.33494e-09
1.33317e-09
9.32555e-10
9.43878e-10
8.92487e-10
9.03126e-10
2.07303e-09
2.18292e-09
2.11009e-09
2.26881e-09
1.55242e-09
1.65423e-09
1.17188e-09
1.10974e-09
9.39447e-10
9.12998e-10
8.96507e-10
9.13404e-10
6.63593e-10
6.71809e-10
6.44117e-10
6.26399e-10
3.03594e-10
2.9032e-10
5.17028e-10
5.32812e-10
3.98333e-10
3.73774e-10
5.28932e-10
5.61561e-10
4.66957e-10
4.9879e-10
2.07871e-10
1.93062e-10
2.58864e-10
2.67274e-10
1.89718e-10
2.06149e-10
1.85286e-10
1.95014e-10
2.6487e-10
2.70752e-10
2.27993e-10
2.23541e-10
3.36325e-10
2.97842e-10
2.8298e-10
2.80546e-10
4.48845e-10
4.39908e-10
5.20512e-10
5.31209e-10
3.86746e-10
3.83316e-10
3.25221e-10
3.1927e-10
2.65648e-07
2.252e-07
2.04842e-07
-2.9254e-08
-4.25695e-08
1.73573e-07
6.33907e-08
1.24336e-07
3.32462e-08
3.71497e-09
3.28183e-09
3.37667e-07
3.06495e-07
-5.7019e-08
-5.62585e-08
-4.06501e-08
-3.58849e-08
2.74034e-08
2.04705e-09
-2.40402e-07
-7.14983e-08
-1.18809e-07
-9.00673e-08
7.02075e-09
7.69982e-09
4.34113e-09
4.57637e-09
-3.87127e-10
-3.97724e-10
-1.34275e-10
-1.35681e-10
-1.35482e-10
-1.32096e-10
-1.38298e-10
-1.42185e-10
-1.20236e-10
-4.11933e-11
-2.85748e-11
-3.59786e-11
3.87631e-08
4.241e-08
1.24516e-09
1.41864e-09
1.40674e-09
2.31668e-09
2.9408e-08
3.21202e-08
-9.20938e-10
-1.35111e-09
-6.31642e-09
-7.20804e-09
-2.04331e-08
-1.8461e-08
-2.56526e-08
-2.71561e-08
-3.25246e-08
-2.80403e-08
-3.3803e-08
-1.11834e-07
7.42224e-07
6.46593e-07
1.10286e-06
9.71389e-07
5.57706e-07
5.29744e-07
4.58243e-07
5.1409e-07
3.37221e-07
3.4266e-07
2.42627e-07
2.06888e-07
2.15651e-07
2.58479e-07
-1.15839e-07
-7.54481e-08
-6.91356e-08
-6.48692e-08
-5.1276e-08
1.3906e-07
1.16473e-07
1.61342e-08
2.56616e-08
6.71637e-07
3.80477e-07
5.17356e-07
3.72314e-07
8.49573e-07
7.37884e-07
1.31716e-06
1.70027e-06
1.5054e-06
1.25206e-06
1.21511e-06
1.84412e-07
1.6871e-07
1.54394e-07
1.59807e-07
2.38678e-07
2.64156e-07
5.88342e-07
4.865e-07
4.01144e-07
2.86994e-07
3.84387e-07
1.88771e-07
1.01374e-07
5.15387e-08
8.04282e-08
-2.98803e-09
5.58002e-08
-1.11172e-07
8.36569e-08
1.77911e-07
1.55952e-07
1.15558e-07
8.16596e-08
4.10039e-08
3.84336e-08
-5.98354e-08
-5.84e-08
1.17334e-07
5.69819e-07
4.75725e-07
1.06034e-06
1.06851e-06
1.36796e-06
1.43976e-06
1.20827e-06
1.2034e-06
3.88689e-07
3.99457e-07
3.02755e-07
2.97355e-07
4.05105e-07
4.64309e-07
5.26175e-07
5.76962e-07
4.84321e-07
5.01505e-07
6.50845e-07
6.56516e-07
3.51443e-07
3.40905e-07
-2.99268e-08
-2.62985e-08
-5.11627e-08
-4.44927e-08
-5.01569e-08
-4.48191e-08
-1.04566e-07
-1.13907e-07
-3.99907e-08
-3.36222e-08
-7.72579e-08
-7.50101e-08
4.07244e-08
3.0923e-08
4.31094e-08
5.07653e-08
7.05279e-09
2.21165e-08
7.61059e-08
7.6727e-08
6.37323e-08
5.90705e-08
9.48571e-08
1.03184e-07
1.03013e-07
9.04727e-08
1.5031e-07
1.55175e-07
1.29265e-07
1.22065e-07
1.76692e-07
1.76075e-07
2.51633e-07
2.48877e-07
2.1918e-07
2.23262e-07
2.2102e-07
2.04374e-07
8.30978e-08
8.10726e-08
7.60938e-08
7.61508e-08
1.00865e-07
1.06706e-07
1.35582e-09
1.36294e-09
9.36057e-10
9.47957e-10
9.35321e-10
9.21496e-10
6.33098e-10
5.61258e-10
1.12471e-09
1.16233e-09
2.61692e-09
2.70073e-09
2.44348e-09
2.35475e-09
1.89926e-09
1.77752e-09
1.72054e-09
1.66527e-09
1.47347e-09
1.56654e-09
1.05043e-09
1.11276e-09
6.65339e-10
6.55074e-10
9.29459e-10
9.12226e-10
8.08579e-10
7.74769e-10
6.20865e-10
6.00515e-10
5.11886e-10
4.93394e-10
5.55931e-10
4.55968e-10
4.73001e-10
4.8766e-10
5.09876e-10
4.60226e-10
3.81068e-10
3.56119e-10
5.46357e-10
5.7672e-10
5.54363e-10
5.38695e-10
2.88723e-10
2.82794e-10
2.59312e-10
2.45034e-10
2.5419e-10
2.69692e-10
2.66367e-10
2.77734e-10
1.99995e-10
2.16211e-10
3.00507e-10
3.15375e-10
2.40258e-10
2.30055e-10
9.22577e-11
1.07063e-10
1.90562e-10
1.86542e-10
2.19859e-10
2.13952e-10
2.69577e-10
2.74959e-10
3.40044e-10
3.00397e-10
2.77627e-10
2.82704e-10
4.47687e-10
4.39007e-10
4.65957e-10
4.55765e-10
4.24597e-10
4.1867e-10
3.71773e-10
3.75396e-10
3.67559e-10
3.71801e-10
3.10109e-10
3.06055e-10
2.36791e-10
2.13075e-10
1.57092e-07
1.86069e-07
2.60346e-10
9.00827e-09
1.45727e-07
1.63962e-07
1.54099e-08
-2.25943e-08
1.02918e-07
1.55366e-08
1.47918e-07
6.01302e-08
6.40109e-08
9.70002e-07
1.11566e-06
-7.15179e-08
-5.9391e-08
-8.97636e-08
-3.64496e-08
-4.31911e-08
-1.87054e-08
-3.79721e-08
1.7111e-07
-1.40036e-08
1.03585e-07
-2.45809e-08
-3.55226e-08
-8.52972e-08
-7.90534e-08
-1.85547e-08
-1.32182e-08
5.40856e-09
6.69449e-09
-1.9383e-10
-1.97768e-10
-3.79606e-10
-3.47443e-10
2.34711e-11
3.35767e-11
-1.0693e-10
-1.10609e-10
-1.42845e-10
-1.39629e-10
-9.33742e-11
-6.99225e-11
-3.3951e-11
-2.63912e-11
2.52615e-08
2.75735e-08
3.02791e-08
3.30351e-08
1.43668e-09
1.37372e-09
-1.00952e-09
-1.28832e-09
-2.45971e-09
-3.23692e-09
-3.70899e-09
-4.03266e-09
-1.79754e-09
-2.331e-09
-3.56787e-09
-3.02652e-09
-8.34457e-09
-7.33349e-09
-1.91906e-08
-1.73212e-08
-2.12759e-08
-2.3647e-08
-3.60574e-08
-3.83634e-08
4.54117e-07
4.2094e-07
5.06833e-07
4.17083e-07
9.90502e-07
1.12821e-06
8.00546e-07
8.93514e-07
4.38538e-07
4.11703e-07
3.76968e-07
3.83091e-07
2.94988e-07
3.29074e-07
2.61859e-07
2.9614e-07
-6.26756e-08
-2.673e-08
1.38495e-08
4.437e-08
8.96292e-08
1.53251e-07
1.49814e-07
4.9626e-08
5.48217e-08
3.78521e-07
3.29652e-07
1.14779e-06
9.8687e-07
1.45627e-06
1.67148e-06
1.27227e-07
1.31452e-07
1.76361e-07
1.70196e-07
1.03575e-06
1.14455e-06
5.31392e-07
6.01549e-07
8.05683e-07
6.69601e-07
6.80103e-08
7.10226e-08
-1.78962e-08
1.49023e-07
1.01255e-07
2.50164e-07
1.89997e-07
7.9813e-08
5.29329e-09
1.13507e-07
1.09003e-07
-5.87119e-08
-8.54204e-08
-8.71181e-08
-9.63746e-08
1.63479e-07
1.94688e-07
9.14006e-08
6.49917e-08
8.56751e-08
7.69922e-09
-5.14239e-08
-7.70045e-09
-3.36576e-08
-2.86508e-08
1.21107e-06
8.55647e-07
9.48362e-07
7.78612e-07
1.19292e-06
1.20459e-06
1.84596e-06
2.11995e-06
1.80349e-06
9.48495e-07
9.50409e-07
1.18811e-06
1.15723e-06
4.39367e-07
4.50956e-07
2.88054e-07
3.20731e-07
3.28408e-07
3.63905e-07
5.09059e-07
4.49523e-07
5.64278e-07
5.43847e-07
-2.40816e-08
-2.08761e-08
-3.17983e-08
-3.55002e-08
-3.88661e-08
-3.40617e-08
-7.68335e-08
-6.95239e-08
-9.50763e-08
-1.24797e-07
-1.03353e-07
-1.10773e-07
-1.08338e-07
-7.22052e-08
-8.71631e-08
-5.79241e-08
3.79568e-08
2.91127e-08
8.25587e-08
8.38504e-08
6.48894e-08
6.98729e-08
6.50178e-08
5.80805e-08
1.14986e-07
1.25616e-07
9.3729e-08
8.26363e-08
1.67433e-07
1.73146e-07
1.77772e-07
1.76701e-07
2.24092e-07
2.21863e-07
2.4513e-07
2.26771e-07
9.20013e-08
8.97498e-08
3.07366e-09
2.95933e-09
9.88273e-10
9.68198e-10
9.12176e-10
8.96912e-10
9.04383e-10
9.1243e-10
8.34298e-10
8.63856e-10
5.35538e-10
6.0705e-10
9.53936e-10
9.46371e-10
1.5833e-09
1.50743e-09
2.21359e-09
2.02016e-09
1.95868e-09
2.02358e-09
2.16882e-09
2.33169e-09
1.61528e-09
1.71754e-09
1.8378e-09
1.9655e-09
1.76553e-09
1.47001e-09
1.56328e-09
1.38724e-09
1.37539e-09
1.29672e-09
1.02604e-09
9.6868e-10
4.56426e-10
4.40994e-10
6.87285e-10
7.07909e-10
8.8236e-10
8.9763e-10
8.27892e-10
8.16574e-10
8.97712e-10
9.03097e-10
8.78642e-10
9.15345e-10
6.10874e-10
6.25863e-10
5.48174e-10
5.29249e-10
4.12801e-10
3.94312e-10
3.86411e-10
3.71149e-10
4.91532e-10
3.80623e-10
5.94095e-10
5.84412e-10
4.64594e-10
4.307e-10
5.05008e-10
4.71753e-10
3.78941e-10
3.62725e-10
2.60087e-10
2.826e-10
2.59603e-10
2.46628e-10
2.41431e-10
2.49495e-10
2.25436e-10
2.11873e-10
1.53192e-10
1.66136e-10
4.00032e-10
3.92318e-10
3.00202e-10
3.13931e-10
2.05486e-10
2.13296e-10
2.58833e-10
9.85447e-11
9.81049e-11
2.89255e-10
2.88623e-10
2.4616e-10
2.45521e-10
2.60512e-10
2.25763e-10
2.37924e-10
2.33525e-10
2.49256e-10
2.43764e-10
2.78217e-10
2.73549e-10
2.92565e-10
2.90507e-10
2.87846e-10
2.84008e-10
3.44347e-10
3.0465e-10
7.34287e-10
7.53669e-10
4.81717e-10
4.84617e-10
4.02332e-10
4.04794e-10
3.74847e-10
3.68991e-10
3.57238e-10
3.61553e-10
3.77367e-10
3.80919e-10
3.34172e-10
3.30171e-10
3.08305e-10
3.09622e-10
2.61748e-10
2.96631e-10
-6.97305e-08
-8.18159e-08
2.59836e-08
3.3461e-08
-3.96441e-08
3.85999e-08
3.74003e-08
2.14682e-08
-1.41649e-08
7.78001e-08
-2.47025e-08
2.77657e-07
-2.78961e-09
-1.85481e-09
1.29681e-07
1.22034e-07
8.47569e-07
8.62854e-07
2.69391e-07
3.06913e-07
-6.53383e-08
-6.44385e-08
4.16116e-08
5.13387e-08
-2.30382e-08
-7.50709e-09
6.64709e-09
6.323e-08
1.24267e-07
2.36622e-08
-3.44218e-08
-6.64376e-08
-8.64425e-08
-2.29256e-08
-4.92196e-08
-9.95958e-08
-7.27649e-09
-7.17803e-09
4.5025e-09
5.20124e-09
9.93377e-10
-2.12645e-10
-2.03291e-10
-2.00911e-10
-2.78664e-10
-2.72345e-10
-3.95831e-10
-3.61836e-10
3.12124e-11
3.26119e-11
-9.09209e-11
-8.94991e-11
-1.16918e-10
-1.14606e-10
-1.42059e-10
-1.45073e-10
-1.51089e-10
-1.53932e-10
-1.09186e-10
-1.13716e-10
-3.67954e-11
-5.95753e-12
-1.41194e-11
-2.26203e-11
1.42056e-10
1.52231e-10
4.16925e-08
4.54983e-08
3.56631e-08
3.8851e-08
2.70986e-09
2.62108e-09
4.48645e-09
4.22733e-09
8.745e-10
-5.04464e-09
-2.64537e-09
-4.74528e-09
-4.39954e-09
2.1139e-08
1.94742e-08
-6.58647e-09
-5.72081e-09
-2.62883e-09
-2.17641e-09
-7.0948e-09
-6.20621e-09
-1.0829e-08
-1.21848e-08
-2.43572e-08
-2.18854e-08
-2.14905e-08
-1.94475e-08
-2.78654e-08
-2.57009e-08
-1.21517e-07
-1.34274e-07
4.86719e-07
4.70517e-07
4.68361e-07
3.79048e-07
8.78453e-07
8.74433e-07
9.89019e-07
1.10423e-06
3.91068e-07
3.66494e-07
5.28076e-07
5.35389e-07
2.73469e-07
2.7112e-07
-1.26592e-07
-1.42334e-07
-6.08246e-08
1.31276e-07
1.44209e-06
1.52746e-06
1.44846e-07
1.40109e-07
1.25032e-06
5.3969e-07
4.87142e-07
7.53453e-07
5.48597e-07
8.41371e-09
3.26636e-08
1.09464e-07
2.93989e-07
2.22991e-07
1.88426e-07
4.32867e-08
-1.18377e-08
-3.33961e-08
-1.20195e-07
-1.18766e-07
-1.33967e-07
1.68711e-07
2.17628e-07
6.39679e-08
6.10631e-08
9.51738e-09
3.59523e-08
-3.23612e-08
5.61134e-07
4.51785e-07
3.93888e-07
7.31694e-07
7.45292e-07
7.93311e-07
8.42728e-07
9.79622e-07
8.49772e-07
1.51399e-06
1.51722e-06
1.87693e-06
1.83761e-06
8.38575e-07
8.36299e-07
1.02708e-06
1.0547e-06
3.94704e-07
4.20435e-07
3.42098e-07
3.5318e-07
4.17874e-07
3.72894e-07
-2.33011e-08
-1.92025e-08
-1.09532e-08
-8.82366e-09
-1.82157e-08
-2.3149e-08
-2.76648e-08
-5.09788e-08
-5.77738e-08
-7.09907e-08
-7.53765e-08
-1.25726e-07
-1.22848e-07
-9.61552e-08
-3.88483e-08
-4.93324e-08
-7.36223e-08
1.10535e-07
1.16767e-07
9.0145e-08
9.22309e-08
5.41245e-08
4.86386e-08
1.26764e-07
1.38798e-07
1.59007e-07
1.58159e-07
2.08226e-07
2.15845e-07
5.16516e-10
6.02602e-10
6.43931e-09
6.16325e-09
1.09824e-09
1.1235e-09
2.66877e-09
2.7569e-09
9.00948e-10
8.81988e-10
9.18372e-10
9.17788e-10
8.50181e-10
8.73879e-10
9.10947e-10
9.24506e-10
8.86592e-10
5.11141e-10
4.3029e-10
1.02394e-09
1.03645e-09
9.74362e-10
9.39867e-10
1.04728e-09
1.04446e-09
1.91963e-09
2.01361e-09
2.49826e-09
2.467e-09
2.61486e-09
2.652e-09
2.6367e-09
2.84409e-09
2.51403e-09
1.80298e-09
1.83019e-09
1.88695e-09
2.01899e-09
1.45291e-09
1.54065e-09
1.36791e-09
1.37449e-09
9.02452e-10
9.54526e-10
9.96466e-10
1.05694e-09
5.3005e-10
5.14928e-10
6.92727e-10
6.73325e-10
8.17398e-10
7.94681e-10
8.66833e-10
9.67358e-10
9.49642e-10
6.83957e-10
6.55811e-10
7.63708e-10
7.70325e-10
8.45061e-10
8.43764e-10
6.60421e-10
6.40257e-10
6.91629e-10
6.76223e-10
5.32907e-10
5.68907e-10
4.44675e-10
4.2677e-10
4.33157e-10
3.86885e-10
4.03796e-10
4.62176e-10
4.40607e-10
5.53858e-10
5.22881e-10
4.11161e-10
4.23446e-10
4.96114e-10
5.13309e-10
4.41266e-10
4.73627e-10
3.23025e-10
3.11326e-10
3.03832e-10
2.16639e-10
2.04178e-10
2.90747e-10
3.07316e-10
2.60802e-10
2.25034e-10
2.36052e-10
1.71197e-10
1.84624e-10
1.81562e-10
5.0799e-10
4.9602e-10
3.12964e-10
3.2751e-10
2.60696e-10
2.75619e-10
2.36906e-10
2.43485e-10
2.0681e-10
2.04516e-10
2.14123e-10
2.21277e-10
3.34676e-10
2.59031e-10
1.58832e-10
2.53131e-10
2.52818e-10
1.93063e-10
1.99195e-10
2.15399e-10
2.11797e-10
2.30641e-10
2.25239e-10
2.54108e-10
2.48516e-10
2.81286e-10
2.77044e-10
2.88009e-10
2.85434e-10
2.63607e-10
2.65906e-10
2.853e-10
2.80917e-10
2.95506e-10
3.00399e-10
6.71009e-10
6.53835e-10
4.77426e-10
4.66127e-10
4.60978e-10
4.65917e-10
4.84411e-10
4.89842e-10
4.75329e-10
4.81714e-10
4.11283e-10
4.16693e-10
3.83415e-10
3.78374e-10
4.15894e-10
4.24638e-10
3.6637e-10
3.69932e-10
3.30312e-10
3.2374e-10
3.27922e-10
3.27123e-10
3.01958e-10
3.00585e-10
2.65614e-10
3.73396e-10
2.63152e-10
1.92882e-09
1.95559e-09
6.22456e-07
5.48925e-07
4.21714e-08
1.53387e-07
1.02723e-07
4.42135e-08
3.17408e-09
1.02699e-07
1.3947e-07
2.72026e-08
-2.60544e-08
-1.8755e-07
3.45884e-09
3.06989e-09
7.22788e-08
6.77559e-08
3.17151e-07
2.79833e-07
7.09451e-07
7.1586e-07
9.67521e-07
1.07121e-06
6.66229e-07
7.11152e-07
1.89424e-07
1.12381e-07
-8.1026e-09
9.05331e-09
4.17679e-08
6.1147e-08
-5.35062e-08
-4.53592e-08
-3.66965e-08
1.37051e-07
5.53285e-08
1.7347e-08
1.62596e-07
2.04971e-07
9.13096e-09
-2.05378e-08
-3.96797e-08
4.09747e-07
3.59475e-07
3.4008e-07
-2.08944e-08
-1.98823e-08
-1.89902e-08
1.0481e-08
8.57992e-09
3.69972e-10
3.90183e-10
-2.76745e-10
-2.7741e-10
-1.98266e-10
-2.0343e-10
-1.73063e-10
-1.7134e-10
-2.7149e-10
-2.65913e-10
-4.11423e-10
-3.75845e-10
-2.65567e-10
-2.71189e-10
2.28969e-11
2.16702e-11
-1.13644e-10
-1.15041e-10
-1.1956e-10
-1.16427e-10
-1.20322e-10
-1.1829e-10
-1.33801e-10
-1.37711e-10
-1.34002e-10
-1.30422e-10
-1.48192e-10
-1.5398e-10
-1.59175e-10
-1.71673e-10
-4.19453e-11
-3.6793e-11
1.62557e-11
4.04244e-11
-4.30327e-11
-4.50559e-11
-4.87823e-11
-2.33564e-11
-1.17728e-11
5.93714e-12
2.49394e-10
2.28096e-10
3.52307e-08
3.84224e-08
2.98212e-08
2.74433e-08
3.112e-09
3.24662e-09
4.00593e-09
4.2406e-09
-8.46734e-11
6.22294e-10
-2.66676e-10
-6.82404e-10
-3.92216e-09
-3.44729e-09
1.51705e-08
1.40235e-08
-1.61495e-08
-1.97823e-08
-1.397e-09
-1.07069e-09
-4.22579e-09
-4.91133e-09
-7.83102e-09
-6.8685e-09
-1.3685e-08
-1.5306e-08
-3.101e-08
-3.41475e-08
-1.78233e-08
-1.60302e-08
-2.59107e-08
-2.37496e-08
-2.31749e-08
-2.08749e-08
7.84757e-09
7.66467e-09
5.80644e-07
6.669e-07
6.96507e-07
4.08946e-07
3.67056e-07
7.84308e-07
7.7358e-07
4.09422e-07
-9.73174e-08
1.03162e-08
7.88048e-09
1.0439e-06
9.61331e-07
1.2197e-06
4.8246e-07
4.4029e-07
1.69776e-07
1.33329e-07
2.70507e-07
2.37609e-07
2.56001e-07
1.28381e-07
-4.30246e-08
-1.22857e-07
-1.34998e-07
-5.189e-08
-7.71388e-08
-1.73312e-07
1.41377e-07
1.75539e-07
-1.26983e-09
-9.53188e-09
3.91108e-07
2.61767e-07
4.45969e-07
5.22831e-07
4.06428e-07
9.34826e-07
1.13888e-06
8.84045e-07
9.15005e-07
8.67409e-07
7.58874e-07
1.35108e-06
1.35674e-06
1.647e-06
1.69503e-06
8.08156e-07
8.28828e-07
1.06943e-06
1.07337e-06
3.70299e-07
3.45328e-07
-2.76353e-08
-3.19315e-08
-7.21547e-09
-1.28857e-08
-3.1221e-08
-3.52307e-08
-5.9342e-08
-6.54545e-08
-1.1156e-07
-1.04805e-07
-2.79009e-08
1.05465e-07
9.98911e-08
1.21717e-07
1.25249e-07
7.12828e-08
7.69408e-08
1.97099e-07
1.90663e-07
-1.06758e-08
-1.19817e-08
2.11173e-08
2.0636e-08
6.28375e-09
6.1259e-09
9.57337e-10
9.39992e-10
1.17298e-09
1.17163e-09
2.48371e-09
2.59014e-09
8.79079e-10
9.08807e-10
1.35231e-09
1.36589e-09
2.92416e-10
2.31182e-10
9.34e-10
9.47082e-10
9.23076e-10
9.26584e-10
8.84153e-10
8.91844e-10
9.0393e-10
9.15668e-10
4.17276e-10
3.24387e-10
1.06475e-09
1.081e-09
9.84206e-10
9.93921e-10
1.02894e-09
1.03769e-09
1.62381e-09
1.67942e-09
1.77153e-09
1.84747e-09
2.40637e-09
2.505e-09
2.03694e-09
1.9431e-09
2.79628e-09
2.90452e-09
2.56455e-09
2.60312e-09
2.74038e-09
2.53971e-09
1.69134e-09
1.58874e-09
1.38398e-09
1.37306e-09
1.40649e-09
1.49463e-09
9.34828e-10
8.83081e-10
1.02643e-09
1.08748e-09
4.47021e-10
4.30086e-10
5.09407e-10
4.94223e-10
6.76575e-10
6.57058e-10
8.55293e-10
8.70462e-10
9.58305e-10
9.76958e-10
9.38596e-10
9.56128e-10
8.28754e-10
8.09123e-10
8.42239e-10
8.40608e-10
8.05497e-10
7.99695e-10
9.06928e-10
9.1169e-10
8.96778e-10
8.86028e-10
5.76744e-10
5.94328e-10
6.03058e-10
6.19132e-10
5.52964e-10
5.71602e-10
6.05201e-10
5.84296e-10
4.53328e-10
4.72291e-10
4.7796e-10
4.59251e-10
3.49758e-10
3.6694e-10
3.91153e-10
3.74549e-10
4.74809e-10
4.2913e-10
6.16344e-10
6.08391e-10
4.40067e-10
4.09515e-10
4.0845e-10
3.86932e-10
3.43128e-10
3.68028e-10
4.60987e-10
4.92978e-10
3.47502e-10
3.3449e-10
2.00048e-10
1.86346e-10
3.04406e-10
3.22675e-10
2.15787e-10
2.33077e-10
2.33854e-10
2.43251e-10
1.9967e-10
1.93675e-10
3.90221e-10
3.82493e-10
2.43334e-10
2.26371e-10
2.87138e-10
3.01061e-10
1.6829e-10
2.70601e-10
2.24886e-10
2.1704e-10
8.94403e-11
8.89361e-11
1.06831e-10
1.08655e-10
2.41339e-10
2.47615e-10
2.79887e-10
2.80404e-10
2.64848e-10
2.7034e-10
2.54498e-10
2.53799e-10
2.28445e-10
2.26094e-10
2.05936e-10
1.98947e-10
2.21448e-10
2.18629e-10
2.28642e-10
2.32868e-10
3.28419e-10
2.93777e-10
2.8388e-10
2.80137e-10
2.76242e-10
2.72289e-10
2.90159e-10
2.86703e-10
3.45394e-10
3.06565e-10
3.45278e-10
3.07013e-10
7.28579e-10
7.32335e-10
6.60684e-10
6.77367e-10
4.77101e-10
4.89082e-10
4.71043e-10
4.74425e-10
5.11729e-10
5.05022e-10
4.89539e-10
4.90038e-10
4.04076e-10
4.08745e-10
3.96771e-10
4.0328e-10
3.71916e-10
3.77577e-10
3.70217e-10
3.63359e-10
3.66551e-10
3.62184e-10
3.62666e-10
3.19853e-10
3.17922e-10
3.22955e-10
2.98437e-10
2.99305e-10
3.16185e-10
3.1396e-10
2.75701e-10
2.78453e-10
2.72305e-10
2.04051e-09
-6.77426e-10
-1.23436e-07
-1.2923e-07
5.1011e-07
4.46162e-07
-6.57034e-08
-9.47319e-08
1.59913e-07
1.07165e-07
2.18567e-08
8.35191e-08
1.73548e-07
2.07829e-07
2.16543e-07
2.16556e-07
5.27861e-08
1.0228e-07
2.19393e-07
2.76185e-07
-4.59181e-08
-4.15751e-08
1.8194e-08
2.12204e-08
4.57241e-08
6.5471e-08
1.24672e-07
1.10586e-07
3.02518e-07
3.41833e-07
6.35378e-07
6.36718e-07
6.49644e-07
6.78704e-07
9.81876e-07
1.0842e-06
6.33572e-07
5.95867e-07
1.06951e-06
1.01101e-06
2.15431e-07
1.50238e-07
2.94399e-08
6.25628e-09
-4.99607e-09
5.15482e-08
-3.02621e-08
-1.27319e-08
2.33885e-08
6.9099e-08
9.04178e-08