/*--------------------------------*- C++ -*----------------------------------*\
  =========                 |
  \\      /  F ield         | OpenFOAM: The Open Source CFD Toolbox
   \\    /   O peration     | Website:  https://openfoam.org
    \\  /    A nd           | Version:  7
     \\/     M anipulation  |
\*---------------------------------------------------------------------------*/
FoamFile
{
    version     2.0;
    format      ascii;
    class       volScalarField;
    location    "2280";
    object      T;
}
// * * * * * * * * * * * * * * * * * * * * * * * * * * * * * * * * * * * * * //

dimensions      [0 0 0 1 0 0 0];

internalField   nonuniform List<scalar> 
238806
(
0.000691183
0.000646222
0.00159805
0.00230058
0.00200658
-5.68384e-05
-0.000136298
0.000478897
0.000519624
0.00121519
0.0011756
0.00198552
-6.56156e-05
-6.46569e-06
0.0026555
0.00252765
0.00133516
0.00126474
0.000359892
8.65616e-05
0.000407973
0.000508487
0.00214303
0.00172792
0.00219841
0.0015049
0.00147108
0.00164448
0.0019697
0.00243289
-6.21938e-05
-9.29054e-05
0.00116164
0.00108514
-0.000174583
-0.000174292
0.0107387
0.0109243
0.00115842
0.00110554
0.00112902
0.00225744
-0.000116418
-0.000117506
0.000125327
0.000387316
0.00151236
0.00142034
0.000998482
0.000893678
4.23483e-05
-6.12827e-05
-5.49339e-05
8.29188e-06
0.000156769
5.13408e-05
0.00124966
0.00124449
0.00119467
0.00132677
0.00126877
0.00144276
0.0011381
0.00108011
0.00103905
-4.4588e-05
0.000148726
0.000557113
0.000725288
0.000515129
0.000475548
0.00099074
0.00107482
0.000842216
0.00094565
0.000107926
0.000221523
-0.000158262
-0.000156685
0.000475119
0.000381967
0.000955083
0.000866699
0.000775245
0.000589632
0.000546328
0.000512638
0.00167002
0.00177293
0.00164473
0.00163196
0.00123387
0.00118407
0.000788108
0.00100153
-0.000161661
-0.000161511
0.0012098
0.00130428
0.00255185
0.000403369
0.000152717
0.000338617
2.47889e-05
-0.000108882
0.000621387
0.000698265
0.000753046
0.000849571
0.00103848
0.00111858
0.000546026
0.00042705
-7.40909e-05
1.87211e-05
-0.00011382
-0.000106896
0.0228853
0.0369832
0.0318367
0.00241885
0.00289322
0.000611859
0.000770833
-5.03257e-05
-0.000131642
0.00217379
0.0026982
0.00159677
0.00194877
0.00114298
0.00134459
0.00148721
0.00235535
0.00143605
0.0012613
0.000566611
0.000571907
0.00218776
0.00247567
0.00215583
0.00249006
0.00112477
0.00113022
0.00137904
0.000216654
0.000412645
0.000301631
0.000122781
0.000199131
0.000358046
9.97235e-05
0.000229175
0.000866152
0.000941583
0.000637652
0.000727743
0.000943557
0.00103023
0.000377622
0.000476473
8.3558e-05
0.000192089
-3.50128e-05
6.58346e-05
-0.000128477
-0.000124027
0.000109328
0.000180572
0.00198532
0.00202469
0.000916452
0.000833558
-0.0146001
-0.00950623
0.0141756
0.000602825
0.000775151
2.58525e-06
0.00011736
0.00228583
0.00287778
0.00266539
0.00148858
0.00145985
0.00140916
0.0013071
0.00177368
0.000794566
0.000796353
4.03142e-05
3.89698e-05
0.0011972
0.00150645
0.00137037
0.00139627
0.00127531
0.00231432
0.00287512
0.00194069
0.00241676
0.000894422
0.000649054
0.000634167
0.000794898
0.00059385
0.000754911
0.000683022
0.000648039
0.00032156
0.000169764
0.00162724
0.00170913
0.000979099
0.00104743
0.00109718
0.00102262
0.00133173
0.00124257
0.000895909
0.000796037
0.000387457
0.000509266
0.0002964
0.000173877
5.37238e-05
-4.00934e-05
-0.000162826
-0.000161508
-0.000174378
-0.000175826
0.000489454
0.000490552
-8.93949e-05
-8.99013e-05
0.000369778
0.000372863
0.000552964
0.000582442
0.00136034
0.00143014
0.00299817
0.00323764
0.00111882
0.00111585
0.000622145
0.000765786
0.000159151
2.48069e-05
0.000286582
0.000253657
0.000821583
0.000792384
0.00122778
0.00130274
0.00138456
0.00143599
0.00125374
0.00127376
0.00101708
0.001024
3.78117e-05
3.96066e-05
-0.000149629
-0.00016199
0.000712419
0.000743206
0.00124797
0.00117867
0.00147254
0.00154346
0.00119107
0.00193402
0.00174021
0.0023001
0.0020026
0.000662519
0.000900664
0.000283585
0.000489938
0.000375423
0.000183952
0.000428123
0.000475807
-0.000152399
-0.000168971
-9.41965e-05
1.06801e-05
0.00118126
0.00114587
0.00145887
0.00153717
0.000946585
0.00101517
0.00108753
0.00115446
0.00110807
0.00118263
0.00119571
0.00127769
0.000898138
0.000985511
-4.07802e-05
2.35369e-05
0.000585284
0.0006949
-9.44451e-05
-1.70355e-05
0.000137118
0.000255388
-0.000149094
-0.000170604
-0.000132783
-0.000164263
7.816e-05
5.88388e-05
0.00154223
0.00150009
-0.000164868
-0.000166986
-0.000207425
-0.000207689
0.000389441
0.000483075
-0.000178963
-0.000209799
0.000231728
0.000229502
0.0292675
0.000883749
0.000804587
0.00243149
0.00214432
0.00145055
0.00146833
0.000202338
0.000223733
0.00232865
0.00259833
0.00114782
0.00125837
-4.59708e-05
-0.000125208
0.000138395
1.37169e-05
0.000398773
0.000538125
0.00240204
0.00227405
0.0018452
0.00240038
0.00173806
0.00175197
0.00151181
0.00166439
-1.44968e-05
-2.75265e-05
8.92266e-05
-0.000116339
-0.00011721
-0.000145176
-0.000161778
0.00115302
0.000983644
0.00144291
0.00117374
0.00222474
0.00201199
0.00257686
0.00117421
0.00112405
0.00169957
0.00152524
0.00276645
0.00210923
0.00180381
0.0020245
0.000980066
0.00117019
0.00141955
0.00115056
-2.32659e-05
0.000171813
0.000719172
0.000887942
0.000677818
0.000843273
0.000705131
0.000737374
0.000793901
0.000834828
-0.000107721
1.95199e-05
-4.88137e-05
9.53389e-05
-0.000168788
-0.000157602
0.000143926
0.000288887
0.000365677
0.000330771
0.00161354
0.00154612
0.000567276
0.000481384
0.000916117
0.000984692
0.00104984
0.0011171
0.0012095
0.00127832
0.00135405
0.00143534
0.000855128
0.000941746
3.8501e-05
-3.01496e-05
0.000546771
0.000653727
-7.79635e-07
-8.509e-05
3.13812e-05
5.71304e-05
-0.000160362
-0.000159471
-0.000136974
-0.000165766
9.92597e-05
0.0010491
0.0010438
-0.000152562
-0.000154781
-0.000202459
-0.000203221
-8.17679e-05
-8.52492e-05
0.000615945
0.000614493
0.000815509
0.000803468
-0.000208485
-0.00020913
0.0015653
0.0018758
-0.000214554
-0.000213837
0.00133481
0.00124387
0.00126104
0.0010966
0.00105562
0.00260683
0.00285831
0.00233793
0.00274646
0.000155424
5.09544e-05
0.000732481
0.000719554
0.00183061
0.00181519
0.0223581
0.0897353
0.00302298
0.0035924
0.00131908
0.00120093
0.000259093
0.000467919
-7.43812e-05
-0.000141676
0.000317477
0.000725482
0.000628992
0.000712426
0.00165741
0.00158842
0.0020361
0.00249886
0.0013302
0.0018264
0.00143741
0.000780183
0.000985652
0.000297376
0.000561309
0.000307787
0.000307136
-0.000153049
-0.000162196
-9.96209e-05
-0.000106136
-0.000139033
-0.000142383
0.000950346
0.000908417
0.0011143
0.00100514
0.0023893
0.00146056
0.00137871
0.0016563
0.00248983
0.00260727
0.00221679
0.00263032
0.00170433
0.00168329
0.00107625
0.00112676
0.00109608
0.00133509
0.00066811
0.000899259
0.000412056
0.000411447
0.00034663
0.000563367
0.000451127
0.00025018
0.000604551
0.000579119
0.000512415
0.000480737
0.000162027
0.000183777
-0.000155438
-0.00016874
0.000266376
0.000441281
-0.00016012
-0.000169704
-4.10229e-06
-0.000101059
0.000202167
8.1031e-05
0.0014423
0.00147736
0.00272205
0.00232946
0.000657945
0.000569991
0.000726119
0.000648552
0.000875037
0.000801446
0.000978179
0.000902217
0.00101357
0.0010814
0.00116728
0.00123479
0.00130104
0.00137546
0.000765812
0.000674108
0.000814758
0.000899749
-7.56923e-05
-0.000125849
0.00027592
0.000176354
0.000509697
0.000614658
0.000785144
0.000665608
-0.000114333
-5.26769e-05
-0.000114572
-0.000160488
0.000218341
0.000180131
0.000149689
0.000122771
-0.000174863
-0.000175119
4.08542e-05
2.41111e-05
0.00736164
0.00755468
0.00184567
0.00159356
-0.000137168
-0.000140655
0.000114565
0.000186456
-0.000193748
-0.000194179
0.00134316
0.00134527
0.00125655
0.00146155
-0.000143755
-0.000181631
-0.000178694
-0.000178467
0.00183644
0.0018565
0.00500793
0.00507548
-0.000220536
-0.000220435
-0.000143191
-7.75475e-05
0.00155333
0.00169417
0.00133054
0.00169132
0.00122348
0.00117095
0.000988546
0.00104949
0.00125661
0.00116214
0.00208382
0.00180634
0.000412517
0.000277913
0.00319138
0.0030058
0.00120309
0.0013074
0.00104988
0.00104471
0.0433311
0.0435907
0.0105247
0.0389051
0.0907755
0.0932821
0.00110107
0.00121525
0.000945282
0.000957041
0.000181737
0.000141641
7.29044e-05
8.2209e-05
-7.00914e-05
-0.000141819
0.000657011
0.000690096
0.000754603
0.000718404
0.00247448
0.00308691
0.00104541
0.000990566
0.0012069
0.00130806
0.0014173
0.00155707
0.00204497
0.00077207
0.000962618
0.00124539
0.00122893
0.000276018
0.000558332
0.00057579
0.000575695
-0.000154485
-0.000162295
-1.7962e-06
-1.72558e-05
-0.000147572
-0.000161888
0.000636697
0.000677373
0.000983491
0.00100576
0.00176667
0.00200925
0.0016788
0.00246393
0.00124546
0.00120009
0.00159227
0.00155519
0.00160761
0.00105946
0.000995509
0.00143042
0.00156101
0.00286863
0.00230227
0.00094278
0.000896391
0.00115246
0.00141742
0.000163614
-3.23932e-05
0.000760092
0.000933501
0.000468396
0.000353041
0.000460605
0.00061789
0.000761545
0.000805891
0.000849425
1.12754e-05
1.45525e-06
0.00020592
0.000227939
6.99552e-05
-6.34794e-05
0.000611134
0.000563848
-2.70095e-05
-0.000110489
-0.00015917
-0.000169128
0.0004387
0.000401691
0.00120743
0.00124264
0.00142608
0.0013855
0.00199647
0.00223473
0.00151706
0.00161493
0.000860098
0.000777002
0.000625913
0.000538755
0.00075607
0.000677574
0.000772599
0.000845181
0.00101651
0.000940536
0.00112665
0.00119359
0.00125397
0.00132468
0.000806327
0.00071254
5.3384e-05
-2.00619e-05
0.000349262
0.000446261
0.000313144
0.000434209
0.000624957
0.00073858
6.26133e-05
0.000165796
-0.000173148
-0.000148715
9.07453e-05
4.07366e-05
0.000132408
-5.47839e-05
-4.26319e-05
-0.000175336
-0.000160942
-3.84159e-06
1.22619e-05
-4.34212e-05
-3.12861e-05
0.000648421
0.000672438
0.0226053
0.0203219
0.0216782
0.0216791
0.000337675
0.000252333
-0.000197526
-0.000198674
-0.000197129
-0.000197267
-3.33107e-05
-3.76157e-05
0.000746744
0.000743694
0.00135446
0.00154225
-8.10008e-05
-0.000125543
0.00100881
0.00100103
0.000580525
0.000572057
0.000213045
0.000210537
-0.000207535
-0.000207939
0.00159417
0.00158992
0.00229793
0.00226029
0.00190737
0.00193721
0.0330053
0.0336051
0.00198542
0.0020191
-0.000221677
-0.000221396
0.0345959
0.033224
0.0286166
0.0012049
0.00133653
0.00101701
0.000941302
0.00110123
-5.23502e-05
-5.4052e-05
0.0013226
0.00139359
0.0012641
0.00120477
0.000865171
0.000809945
0.00101083
0.000952292
0.00159142
0.00164861
0.00157873
0.00157168
-0.000234752
-0.000236216
0.00106776
0.00108531
0.000424445
0.000285131
0.0001638
5.32434e-05
0.00176072
0.00176697
0.000170627
0.000176714
0.000761148
0.000746338
0.00091322
0.000907055
0.00104023
0.00103636
0.00260857
0.00258213
-0.0108497
0.00666036
-0.00320987
0.00668778
0.00652259
0.001049
0.00109815
0.0011796
0.00127785
-4.6358e-05
-6.60636e-05
-0.000111445
0.000477814
0.000262442
8.45341e-05
0.000408647
0.000222784
-0.000141017
-8.56501e-05
0.000722054
0.000579704
0.000847162
0.000883152
0.00156886
0.00188113
0.000927639
0.000885583
0.00142146
0.00129565
0.0015327
0.00187355
0.000967449
0.000769965
0.00131099
0.00174393
-0.000129694
-0.000136727
0.000305665
0.000300907
-0.00015145
-0.000162092
-3.09228e-05
-4.30932e-05
0.00103484
0.00087338
0.000863696
0.000813954
0.0007696
0.000796128
0.00178008
0.00155289
0.00177771
0.00258586
0.00310365
0.00258371
0.00117655
0.00112975
0.00133235
0.00128409
0.00195479
0.00228601
0.00124978
0.00129152
0.00182441
0.00160035
0.0017444
0.00174482
0.000656531
0.000868403
0.0011495
0.00143364
0.000527663
0.000315914
-0.000128656
-4.71187e-05
0.000444018
0.00054847
0.000587155
-0.000108536
-0.000110757
-0.000170378
-0.000142741
0.000398842
0.000231451
-0.000160669
-0.000170475
0.000257801
0.000120392
0.00141165
0.00137862
0.00151796
0.00156648
0.00207734
0.00185379
0.00149087
0.00142156
0.00164962
0.000691849
0.000602963
0.000455508
0.000540655
0.000907188
0.00083259
0.000980825
0.00105622
0.00122836
0.00115126
-6.91101e-05
-0.000122747
0.0002978
0.000390939
0.000155684
0.00025075
0.000223672
0.000332823
0.000471519
0.00034896
4.44158e-05
0.000142245
-0.000119552
-0.000160389
-0.000134424
-0.000171266
-0.000160781
-0.000113251
0.000140915
0.000241681
-3.37453e-05
-0.000175481
-0.000161229
-7.51308e-05
-6.55681e-05
-9.95624e-05
-9.19361e-05
0.0014972
0.00143047
0.0227889
0.0204771
0.000910945
0.0017092
0.00138177
0.00158461
0.000473932
0.000468111
-0.000197218
-0.000197015
-0.00018206
-0.000183105
4.28915e-05
4.76198e-05
-0.000194603
-0.000207136
0.00177777
0.00140248
0.00137318
0.00156115
-8.77458e-05
-0.000130365
0.000929699
0.000940871
0.00144599
0.0016372
0.000608959
0.000619457
0.00067612
0.000667125
0.000378119
0.000371928
0.000135325
0.000138256
4.49514e-05
4.49896e-05
-0.000178344
-0.000178348
0.000631765
0.000777298
0.00190857
0.00158895
0.00183492
0.00180352
0.0281892
0.0287443
0.00150528
0.00148518
0.0014337
0.00144286
-0.00020481
-0.000203979
-0.000217987
-0.000189082
0.000263341
0.000407725
0.00071863
0.000734045
0.000628805
0.00138649
0.00148873
0.0014226
0.00158131
0.00167179
0.0015944
-0.00012286
-0.000123959
0.000742794
0.000706893
0.0012937
0.00123714
0.00115398
0.00110892
0.00103081
0.00109648
0.00211239
0.00210039
0.00171648
0.00202296
0.00011744
0.000137951
-0.000215202
-0.000237673
0.00296465
0.00307362
0.000149986
5.0369e-05
0.000287386
0.000428217
0.000154395
5.07666e-05
0.00203468
0.00181809
0.00125694
0.00153869
5.55546e-05
7.13812e-05
0.000653638
0.000564526
0.000671365
0.000608442
0.000169976
0.000184416
0.000777712
0.000790057
0.00112255
0.00112693
0.00149812
0.00149844
0.0442055
0.0432065
0.00180324
0.00177584
-0.00113964
0.00247697
0.000926681
0.000903484
-0.00012349
-0.000107947
0.000243083
0.000439112
4.81407e-05
6.0631e-05
-8.18352e-05
-0.000140968
0.000927329
0.000965983
0.000590161
0.000443098
0.00197775
0.00169159
0.00190884
0.00167613
0.0014241
0.00105698
0.00100711
0.00121879
0.00115639
0.00215677
0.00168311
0.0014368
0.00164634
0.00129998
0.00177719
0.00122154
-0.000118478
-0.000119383
0.000322955
0.000572606
0.000503718
0.00045919
-6.3615e-05
-0.000116935
-9.22774e-05
-8.37686e-05
0.00103571
0.00121654
0.00134168
0.0011828
0.00124903
0.00144039
0.00149383
0.00159563
0.0014282
0.00162035
0.00157682
0.00165867
0.00107822
0.000992896
0.00103205
0.00110305
0.00105178
0.00125357
0.00120467
0.00169415
0.00191028
0.00146207
0.00161931
0.00199567
0.000186941
-4.40413e-06
0.000888404
0.000666247
-0.000132709
-0.000172184
-2.03741e-05
-0.000118084
7.0359e-05
0.000222051
0.00097964
0.00102604
0.000627014
0.000669686
2.76413e-05
-8.59425e-05
-0.000148328
-0.000169533
-0.000106312
-1.64389e-05
0.00129157
0.00126083
0.00145851
0.00140595
0.00149335
0.00144934
0.00258673
0.00329356
0.00139737
0.00134622
0.00167951
0.00181715
0.000741665
0.000822934
0.000595699
0.000509181
0.00113914
0.00106516
-0.000131481
-9.10055e-05
0.000100292
0.000185189
0.00030322
0.000198916
0.000474095
0.000577544
-4.26169e-05
-0.000108888
2.85244e-05
0.000121152
-0.000159563
-0.000115391
-0.000172008
-0.000139865
-0.000114901
-0.000160031
0.000158395
0.000269325
-0.000168971
-0.000145143
-0.000175501
-0.000161012
-1.81242e-05
-8.38195e-05
0.00139313
0.00150705
0.000800809
0.00174894
0.0016685
0.00162674
0.00136394
0.00136337
0.000890804
0.000791158
0.000240931
0.000170009
-0.000196707
-0.000196289
-0.000199737
-0.00020072
-0.000197354
-0.000201627
2.36141e-05
1.85526e-05
-0.000145907
-0.000147722
0.00103321
0.00102913
0.0013984
0.00178567
0.000595567
0.000604427
-0.000191698
-0.000208842
-0.000190527
-0.000209435
-2.81167e-05
0.00167228
0.0016673
0.00165929
0.00164819
0.00126032
0.000501301
0.000509385
0.000783406
0.000774001
0.00056392
0.000463416
-0.000183879
-0.000208618
-0.000208004
-0.000207582
0.000432779
0.000426545
0.000125539
0.000124524
-0.000138018
-0.000138385
0.00168972
0.0016863
0.000695671
0.000572368
-0.000236172
-0.000233955
0.00187963
0.00183334
0.00177337
0.00188038
0.0272757
0.0275834
0.0183653
0.0186376
0.0020814
0.00210833
0.00124605
0.00125235
0.000241569
0.00036697
-0.000143646
-7.82704e-05
-0.000187543
-0.000217332
-7.59804e-05
-0.00014208
0.000104389
0.000240292
0.021669
0.036087
0.000927438
0.000820999
0.00143521
0.00129598
0.00116743
0.00115248
0.00159673
0.0015887
0.00139787
0.00122256
0.00147141
3.23564e-05
-3.21289e-05
0.000396432
0.000370477
0.00139701
0.00144363
0.00132654
0.00114362
0.0011969
0.00117313
0.00124081
0.00216511
0.00164079
0.00152384
0.00166148
0.00178726
0.00233993
0.00227432
0.00100767
0.000908408
-0.000212978
-0.000210516
3.95361e-05
0.000164112
0.000461034
0.00047339
-0.000253839
-0.000244634
0.00142138
0.00147689
0.00029001
0.000432369
0.00201718
0.00177416
0.00155969
0.0012746
-6.60575e-05
-5.88476e-05
9.23891e-05
0.000108701
0.000567003
0.000655898
0.0287598
0.028631
0.0213549
0.0306145
0.00142853
0.00155427
0.000803403
0.000817833
0.000968495
0.000964119
0.00151712
0.00152247
0.00142253
0.00141846
0.0439419
0.0441243
0.000883619
0.0011296
0.000791322
0.000755371
0.00105358
0.00118247
0.000401398
0.000368747
7.53238e-05
5.18359e-05
0.000201443
0.000378156
-7.8114e-05
-0.000141213
0.00100709
0.000861425
0.000623843
0.000478577
0.00134177
0.00126529
0.00135183
0.00111621
0.00120457
0.00114909
0.000969711
0.00114147
0.00108356
0.00134582
0.00130541
0.00121567
0.00120819
3.42432e-05
3.18917e-05
-8.00811e-05
-0.000125548
-0.00011183
-5.39277e-05
-3.23872e-05
-4.44947e-05
0.000521233
0.000582553
0.00113491
0.00108429
0.00137286
0.00144518
0.00129854
0.00128978
0.00122743
0.00130805
0.00133648
0.00144912
0.00131056
0.00137257
0.00184404
0.00227791
0.00254762
0.0021521
0.00242301
0.00102742
0.000901991
0.000955618
0.00122791
0.00115273
0.00141421
0.00135726
0.00145726
0.00172209
0.00157719
0.00215897
0.00169461
0.00151426
0.00167913
0.000179146
-1.4047e-05
-0.000148791
-0.000157901
-0.000163714
-0.000172308
-0.000119664
-0.000103987
2.96932e-05
-8.98718e-06
-0.000113947
0.000274745
9.97824e-05
0.000882029
0.00093216
0.000390573
0.000356553
-7.56571e-05
4.75298e-05
0.00123356
0.00120266
0.00134924
0.00141158
0.0013625
0.00132507
0.00175826
0.00161562
0.00233087
0.00221956
0.00266082
0.00332865
0.00183242
0.00212304
0.00199464
0.00158047
0.000708559
0.000788268
-8.70817e-05
-0.000130491
0.000205266
0.000117725
0.000322579
0.000417673
0.000364399
0.000250604
0.00044024
0.00054224
-3.08687e-05
-0.000102335
-0.000173599
-0.000152054
-0.000172635
-0.00014462
0.00017847
0.000298443
-0.000167351
-0.000141082
-0.000195178
-0.000191925
0.00137928
0.00184558
0.0015087
0.00148544
0.0130037
0.0138738
0.0170723
0.0160958
0.00432452
0.00358267
0.000560585
0.000659612
0.000389323
0.000394651
0.000332637
0.000403139
0.000127663
0.000121506
-0.000187112
-0.000187971
-0.000127829
-0.000130758
-0.000197381
-0.00019734
-0.000184149
8.82287e-05
8.28275e-05
2.85159e-05
-0.000203912
-0.000204539
-0.000206459
-0.000206817
0.0223431
0.0225241
0.000487674
0.000488495
0.000591975
0.000485055
0.0189063
0.0202951
0.000978214
0.000871901
0.000577963
0.000569238
0.000256926
0.000346157
-0.000190937
-0.000209255
-0.000189022
-0.000209757
0.00115538
0.0011707
0.00144599
0.00124294
0.000991922
0.000881581
0.000695367
0.000706689
0.000470678
0.000478079
-0.00018823
-0.000209703
-0.000180127
-0.000141073
0.000318366
0.000323268
4.59792e-05
0.000127356
-0.000207333
-0.000207344
-0.000137326
-0.000137506
0.000826884
0.000830205
0.00124108
0.00122656
0.000593494
0.000722101
0.000823096
0.000299682
0.000303493
0.000663109
0.000654324
0.00186946
0.00185203
0.00551588
0.00620992
0.0253572
0.0248488
0.0262363
0.0258179
0.0323413
0.0320024
0.00497541
0.0182316
0.00236354
0.00233767
0.00243758
0.0024808
-0.000209062
-0.000208448
7.22571e-05
0.00016791
-0.000190783
-0.000218755
0.000363332
0.000365084
-7.13698e-05
-0.000138795
-0.000188399
-0.000217709
-0.000208577
-0.000168677
0.000998282
0.000774463
0.0352066
0.0339317
0.00148315
0.00162276
0.00127233
0.00121697
0.00115486
0.00127937
0.00119357
0.00145008
0.00134826
0.00152482
0.00172702
0.0011026
0.000819014
0.000785921
0.000304275
0.000430626
0.000411499
0.00021114
0.000672432
0.00052292
0.00127364
0.00133263
0.000856181
0.000786011
0.00112314
0.00106678
0.00126984
0.00123798
0.00114811
0.00149485
0.00138422
0.00147748
0.0020292
0.00143297
0.00131572
0.001431
0.0152486
0.0188986
0.000202206
0.000223923
0.000791699
0.000783653
-0.000288912
-0.000316623
0.00150404
0.00148583
0.000675574
0.000691386
-0.000246169
-0.000245416
0.00474906
0.0138938
0.00149291
0.00141954
0.000153283
5.06128e-05
0.000160407
5.23589e-05
0.00138832
0.00166294
0.00147587
0.00152469
0.00133258
0.00162622
-0.000162958
-0.000161316
-8.30214e-06
4.65833e-06
0.000126418
0.00014503
0.00037923
0.00037128
8.05748e-05
8.06203e-05
0.0255975
0.0273277
0.0293857
0.00154521
0.00142206
0.000200349
0.000188608
0.000945657
0.000936205
0.000901507
0.00089649
0.00129957
0.00129942
0.0418082
0.0422444
0.00129398
0.00128041
0.00169672
0.00167968
0.000473915
0.0016944
0.00353248
0.00465402
0.000655941
0.000614781
0.00099989
0.00114431
0.000217935
0.000426683
1.44826e-05
-1.09684e-05
0.000180087
0.00034772
-6.43017e-05
-0.000140224
0.000826735
0.000791187
0.00270003
0.00338197
0.00150554
0.00109906
0.000974479
0.000773556
-0.000121475
-7.23155e-05
-6.49546e-05
0.000760332
0.000700843
0.00137495
0.0012803
0.00183586
0.00219114
0.00228892
0.00118398
0.00108584
0.00118597
0.0015102
0.00212168
0.00225616
0.00284729
0.00300437
0.00346878
0.00107108
0.000941598
0.00128354
0.00134857
0.00139195
0.00131039
0.00152369
0.00135945
0.0013151
0.00199727
0.00143657
0.000616791
0.000420042
0.000540491
0.0010527
0.00126069
-0.000169106
-0.000142316
-7.52411e-05
0.00010574
-0.000171403
-0.000112858
7.8638e-06
-0.000115767
0.000325898
0.000141344
-3.26137e-05
-0.000122936
0.000763969
0.000722334
0.00125831
0.00121878
0.00111227
0.00108048
0.00117353
0.00123216
0.00129017
0.00147401
0.00153262
0.00170788
0.00182616
0.00446165
0.00385201
0.00196812
0.00136688
0.00144375
0.00173941
0.000101882
1.43566e-05
-8.15775e-05
-0.000128432
0.000275181
0.00036635
0.000398321
0.000280429
-0.000173966
-0.00015465
4.79055e-05
-4.30908e-05
0.00129737
0.00130499
-0.000184281
-0.000172389
0.000438005
0.000427611
-0.000154212
-0.000152957
0.00116255
0.00117181
0.021494
0.0154753
0.0100593
0.0111029
0.00119762
0.00104388
0.0151912
0.00161069
0.00160138
0.000641369
0.000543495
0.000749645
0.000759422
0.00115189
0.0011405
0.000554107
0.000548785
0.000176222
0.000248689
-0.000121739
-8.76623e-05
-0.000196303
-0.000195797
-0.000188694
-0.000162794
-0.00013386
-0.000185175
-0.000186174
0.000157408
0.000151646
-7.83909e-05
-2.91342e-05
-0.000102006
-0.00010449
-0.000195017
-0.000195415
0.000845376
0.00086768
0.000613405
0.000612722
0.000943362
0.000947778
0.000703289
0.00138757
0.00181299
0.00119789
0.00121187
0.000411864
0.000507151
0.000687606
0.000789331
-0.000192101
-0.000208628
8.87889e-05
2.22746e-05
-0.00016293
-0.000163927
-0.000189605
-0.000209706
-0.000159575
0.0016791
0.00167807
0.0014844
0.00150988
0.000890975
0.00090017
0.000850944
0.000832667
0.00068558
0.00079315
4.7952e-05
4.39597e-05
-0.000185731
-0.000209151
-0.000149666
0.000227051
0.000231021
0.000309146
0.000304953
0.000216041
-0.000178613
-0.000179117
-1.84924e-05
-1.98369e-05
-0.000137728
0.00150527
0.00172992
0.00142934
0.00141197
0.000967125
0.00109716
0.000853541
0.000836856
0.00195838
0.001975
0.015962
0.0274889
0.00203108
0.00228872
0.00233415
0.00242784
0.00244624
0.00182044
0.00182249
0.00174257
0.00171101
0.0244016
0.00937948
0.031148
0.0309665
0.0180722
0.017933
0.0327057
0.0279143
0.00202706
0.00203431
0.00251861
0.00248834
0.000968218
0.000978201
5.1299e-05
5.22372e-05
0.000366596
0.000367016
-8.43554e-05
-1.36239e-05
-0.000175003
-0.000132841
-5.00757e-05
-4.54794e-05
-8.00566e-05
-0.000145516
3.07996e-06
0.000105916
0.00201317
0.00198856
-0.00018645
-0.000216838
0.000257212
0.000402093
-0.000104973
-1.72549e-05
-0.000181488
-0.000139043
0.0303759
0.0126544
0.021654
0.000657223
0.000642702
-1.85003e-06
-1.14911e-05
0.00101544
0.000944846
0.000970658
0.00111776
0.00170425
0.00200903
0.00112329
0.00173019
0.00162363
0.00159593
-0.000110071
-0.000112381
-1.92993e-05
5.09588e-05
0.000175586
0.000159168
-5.15031e-05
-0.000109884
0.000189078
0.000154953
0.00076595
0.000601491
0.0014498
0.00177725
0.00100476
0.000953411
0.000831301
0.00076703
0.00134008
0.00125887
0.00119026
0.00109725
0.00116918
0.00106258
0.00119642
0.00123616
0.00149562
0.00132428
0.00154412
-5.78021e-05
-3.00447e-06
-0.000135933
0.00169777
0.00118621
0.00113493
-0.00023178
-0.000233277
0.000513394
0.000411027
0.000210168
0.000342182
0.00147324
0.00148666
-4.09916e-05
-4.0785e-05
0.00123592
0.00122083
0.000915503
0.000935232
0.000236346
0.000241388
-0.000254554
-0.000255249
0.000523963
0.000385759
0.00150874
0.00141829
0.00108304
0.00130711
0.000152041
5.03765e-05
0.000601338
0.000768095
0.000162548
5.28827e-05
0.00018708
6.01123e-05
0.00142623
0.00145329
0.0253249
0.0252292
0.00171089
0.00183735
0.00175073
0.00182211
0.00203858
0.00216516
-0.000248095
-0.000245547
-3.17097e-05
-2.06533e-05
0.00018216
0.000163428
0.000301206
0.000309334
0.000138666
0.000138508
0.000817453
0.000753213
0.0010225
0.00111335
0.00130383
0.00120201
-0.000101987
-0.000103395
0.00105332
0.00107852
0.000837784
0.000832365
0.000973518
0.000979138
0.00140895
0.00141061
0.0426618
0.0429785
0.0014555
0.00146721
0.00132862
0.00132224
0.00174471
0.00171889
0.00231148
0.00292022
0.000756956
0.000735136
0.000758303
0.000625231
0.000709656
0.000947699
0.000901379
0.000243929
0.000446929
3.61981e-05
0.00217453
0.000786254
0.000825251
-0.00012577
-0.000156276
-0.000136191
0.000928573
0.00109419
0.0008183
0.000865024
0.00134396
0.00160555
0.00218508
0.00136075
0.00187968
0.00342079
0.00432077
0.00162321
0.00182512
0.00291639
0.00087314
0.000834863
0.00146791
0.00156379
0.00140768
0.00133137
0.0015338
0.0015813
0.00203716
0.00173662
0.00173019
0.000618811
0.000417605
0.00101505
0.00121111
-0.000170955
-0.000138053
9.04533e-05
-7.52617e-05
-3.20425e-05
-0.000135541
-0.00017267
-0.000126595
0.000120513
0.000295711
0.00126653
0.00130208
0.00105035
0.00111314
0.00131879
0.00135022
0.00152521
0.00160914
0.00294071
0.00236984
0.00130054
1.66614e-06
8.43613e-05
-6.14414e-05
-0.000118909
0.000227233
0.000136327
-0.000159392
-0.000113138
0.00122371
0.00123408
-0.000109963
-7.03453e-05
-0.000184202
-0.000189232
0.000290902
0.000385318
0.00155847
0.00166202
0.00021988
0.000216383
0.00193582
0.00192268
0.000523377
0.000526491
0.0014199
0.00142748
0.000633619
0.00182411
0.0127556
0.0120222
0.0216027
0.0120782
0.014335
0.0135298
0.0014472
0.00152332
0.000632377
0.000535062
0.00065043
0.000551999
0.00121601
0.00120207
0.00072076
0.000714773
0.000636393
0.000630949
0.000321932
0.000314274
-1.71715e-05
-6.65938e-06
0.000106961
4.69022e-05
-0.00017279
-0.000150151
-0.0001935
-0.000194952
-0.000160776
-0.000158822
9.35391e-05
0.000163172
-0.000155041
-0.000156911
-0.0001423
-0.00014052
-0.000174481
-0.000175597
0.0141433
0.0145301
0.00230371
0.00231583
0.00074205
0.00074148
0.000593751
0.000485172
0.000592071
0.000487422
0.00180326
0.00139091
0.000809446
0.000799349
0.0012483
0.00141742
0.000499101
0.000404396
0.000769287
0.000668866
6.6316e-05
3.11934e-06
0.000262519
0.000352683
2.95236e-05
9.73136e-05
-0.00012716
-8.3244e-05
-0.000164906
-0.000191313
-0.000121936
-7.6159e-05
-0.000190103
-0.000209592
0.000758632
0.00074631
0.00157739
0.00159714
0.00127961
0.00130222
0.00159574
0.00140933
0.000485582
0.000493368
0.000719522
0.00073328
0.000402406
0.000396523
0.000117961
0.000113774
-0.000187115
-0.000209484
5.15746e-05
5.36297e-05
0.000414348
0.00040835
-2.24481e-05
-2.35341e-05
-0.000138929
-0.000139686
-2.11774e-05
-8.70367e-05
0.00100812
0.00101298
0.00147296
0.00147381
0.0012558
0.00144552
0.00100506
0.00112671
0.000707896
0.000582391
0.000173676
0.0001763
0.000233643
0.000238181
-0.000160875
-7.80378e-05
0.00109403
0.00107715
0.00194593
0.001615
0.00236231
0.00239935
0.0298604
0.0295227
0.00167668
0.00163125
0.00920475
0.00905031
0.00958673
0.00983108
0.00221014
0.00226242
0.00493722
0.00490466
0.00228572
0.00225811
0.00192721
0.00190625
0.00127912
0.00130007
0.000721542
0.00073322
0.00043368
0.000549982
0.00013469
0.00013314
0.000242554
0.00024296
7.04651e-05
0.000166788
-0.000222802
-0.000221821
-0.00011467
-0.000109453
-8.094e-05
-0.000146219
0.000105254
0.000106201
5.26792e-06
3.97848e-06
0.000227727
0.000367189
-0.000140631
-7.39808e-05
4.52341e-05
0.000146305
-1.6949e-05
-0.00010354
0.000114732
0.000113287
0.0016502
0.00438756
0.00260053
0.0022465
0.0129112
0.000629443
0.000692706
0.00250338
0.00279447
0.000511794
0.000474494
0.00184391
0.00209599
0.000763667
0.000846626
0.00108698
0.00103939
0.00107527
0.00113114
0.00113115
0.00103109
0.00143588
0.0013025
0.00163596
0.00169223
0.00121492
0.0011876
0.000205431
0.000129361
0.000658889
0.000567309
0.000157108
0.000133899
-0.000101572
-0.000100041
-0.00011033
-8.72204e-05
0.000425519
0.000229764
3.83409e-05
1.00979e-05
0.00102471
0.00126648
0.00059118
0.000791271
0.00146159
0.00176779
0.000886845
0.000911813
0.000863232
0.000748873
0.00117657
0.00111315
0.00108276
0.000998417
0.000968148
0.00100589
0.00106774
0.001135
0.00172864
0.00174274
0.0020051
0.00211508
0.00244108
0.00160848
0.00192968
-0.000164863
-0.000217255
0.00162736
0.0016621
0.00109304
0.00112408
9.50904e-05
0.000181611
-0.000173428
-0.000169372
-0.000221086
-0.000242076
0.00925225
0.010633
0.000136533
0.000218816
0.00146248
0.00145135
-0.00024373
-0.000243188
4.51942e-05
4.2365e-05
0.00178002
0.00182521
0.00166612
0.00165845
0.000454674
0.000667399
0.000246507
0.000251695
-0.000108518
-0.000109662
0.00116635
0.00208453
0.0010815
0.00128463
0.000543124
0.000399534
0.00167088
0.00163496
0.000971892
0.000973948
0.000280199
0.000416452
0.000151083
5.03891e-05
0.00115836
0.00140752
0.00076067
0.00059578
0.000161573
5.26536e-05
0.000169309
5.38464e-05
0.00195441
0.0016916
0.0033241
0.00351481
0.000267227
0.000127453
0.00169277
0.00181618
0.00172939
0.00184659
0.00188745
0.000346193
0.000352466
-0.000246296
-0.000243658
4.04622e-05
2.67474e-05
0.000479744
0.000398651
0.000222268
0.00022773
-6.08848e-05
-6.00808e-05
0.000570956
0.000573649
0.000695682
0.000631874
0.000684228
0.000620133
0.00086275
0.000940167
0.00131803
0.00120792
0.0157461