/*--------------------------------*- C++ -*----------------------------------*\
  =========                 |
  \\      /  F ield         | OpenFOAM: The Open Source CFD Toolbox
   \\    /   O peration     | Website:  https://openfoam.org
    \\  /    A nd           | Version:  7
     \\/     M anipulation  |
\*---------------------------------------------------------------------------*/
FoamFile
{
    version     2.0;
    format      ascii;
    class       volScalarField;
    location    "0.05";
    object      p;
}
// * * * * * * * * * * * * * * * * * * * * * * * * * * * * * * * * * * * * * //

dimensions      [0 2 -2 0 0 0 0];

internalField   nonuniform List<scalar> 
238806
(
6.68241e-07
6.64162e-07
-5.61804e-08
1.02215e-07
1.46562e-08
6.03748e-07
6.11991e-07
6.94278e-07
7.67398e-07
1.51687e-07
1.73403e-07
2.40107e-07
7.19857e-08
6.7893e-08
-9.11153e-08
-1.05878e-07
1.25608e-07
8.51308e-08
2.12735e-06
2.14436e-06
9.06656e-08
8.07037e-08
-9.01764e-08
-5.75587e-08
-2.94707e-08
8.77724e-08
3.03531e-08
8.24663e-08
-1.6546e-08
-1.06181e-07
1.89619e-06
2.10513e-06
4.8542e-08
7.0206e-08
1.33105e-07
1.47996e-07
3.81692e-10
3.36448e-10
1.28816e-07
2.55471e-07
1.99953e-07
-1.85292e-08
2.35814e-06
2.59185e-06
1.91596e-06
1.89688e-06
-4.73748e-08
-3.19512e-08
9.21673e-08
1.13662e-07
2.67619e-07
2.78252e-07
7.93562e-08
7.46976e-08
-2.14457e-10
-2.2249e-10
1.62311e-07
5.65291e-08
1.4927e-07
2.2585e-07
1.68942e-07
3.22445e-07
1.9944e-07
2.65468e-07
3.06807e-07
1.7092e-06
1.7107e-06
8.73036e-07
7.83978e-07
4.40018e-07
3.91909e-07
6.39293e-08
4.49472e-08
1.1058e-07
8.90852e-08
2.02692e-07
1.88308e-07
1.32664e-07
1.47346e-07
2.23004e-09
2.20175e-09
6.11045e-08
8.96078e-08
1.03839e-06
1.09527e-06
3.87078e-07
3.47023e-07
3.578e-08
-4.22933e-08
7.4311e-08
3.7134e-08
3.23314e-07
2.10794e-07
1.96318e-06
1.91127e-06
2.58827e-07
2.86664e-07
1.48796e-07
1.13354e-07
-1.3101e-08
1.68767e-06
8.81854e-07
8.32279e-07
7.45104e-07
7.48042e-07
3.48551e-08
2.83942e-08
9.58501e-08
7.86504e-08
6.74879e-08
4.63517e-08
1.94903e-07
2.17309e-07
2.48703e-07
2.38637e-07
7.53845e-08
8.31257e-08
2.96768e-10
3.84596e-10
1.86382e-10
-1.30821e-07
-1.25121e-07
8.59544e-07
8.11555e-07
6.72731e-07
6.8134e-07
-1.17939e-07
-1.38583e-07
8.07656e-09
1.13567e-08
2.65869e-07
1.63142e-09
5.45812e-08
-3.16836e-08
1.27199e-07
2.73706e-07
1.80524e-06
2.02416e-06
-2.35283e-07
-6.34949e-08
-1.16872e-07
-6.61413e-08
1.87469e-07
1.24866e-06
1.00316e-06
1.1195e-06
1.05937e-06
7.42453e-07
7.84779e-07
5.23737e-07
4.88929e-07
3.32814e-07
3.12585e-07
2.4813e-08
1.60107e-08
7.5917e-08
6.38272e-08
6.13439e-08
4.42824e-08
8.27829e-08
7.40368e-08
1.8292e-07
1.71329e-07
2.78016e-07
2.67578e-07
1.2905e-07
1.43704e-07
2.52663e-09
2.55418e-09
3.80667e-10
3.36739e-10
5.55802e-08
8.00776e-08
-4.81159e-08
-3.64106e-08
-1.74826e-08
9.66627e-07
9.12724e-07
3.03997e-07
2.90838e-07
-1.04188e-07
-1.295e-07
-5.83786e-08
7.83957e-08
-4.27185e-09
4.89538e-08
1.01207e-06
9.27794e-07
2.18608e-06
2.44585e-06
2.3396e-06
2.57863e-06
9.91663e-07
8.29564e-07
1.45377e-07
5.48206e-09
1.51903e-07
-4.09178e-08
-5.80191e-08
7.13668e-09
-6.39778e-08
2.03998e-06
2.09144e-06
1.11601e-06
1.05613e-06
9.84317e-07
8.73786e-07
3.34343e-07
2.98953e-07
4.35741e-07
4.67884e-07
-5.72693e-08
-6.39917e-08
8.01908e-09
4.66088e-10
1.39554e-08
2.73168e-08
1.84919e-08
3.28629e-08
8.33722e-08
1.02803e-07
1.94252e-07
1.76828e-07
2.13924e-07
2.50943e-07
2.41599e-07
2.49402e-07
1.31917e-07
1.4677e-07
4.41807e-09
4.69089e-09
2.01539e-09
2.06645e-09
8.35168e-10
8.21218e-10
9.09227e-10
8.86205e-10
3.52136e-07
4.04164e-07
3.81301e-08
1.04949e-07
-1.29313e-07
-1.40844e-07
-1.18623e-09
-5.17794e-10
7.60435e-07
7.17193e-07
3.59785e-07
3.76673e-07
3.01029e-07
2.74815e-07
1.48737e-07
1.59864e-07
1.23006e-08
1.5945e-08
6.14147e-08
1.22418e-07
1.87375e-06
2.21521e-06
2.09286e-06
2.36842e-06
1.89669e-06
2.11291e-06
1.90148e-07
1.92095e-07
8.2715e-07
9.19963e-07
1.99743e-07
2.25843e-07
-1.07335e-08
-2.72527e-08
2.46077e-07
-5.18662e-08
4.54929e-09
1.82515e-07
1.30852e-07
1.85656e-06
1.79458e-06
1.41529e-06
1.3386e-06
9.40659e-07
9.94378e-07
5.80068e-07
6.19773e-07
5.84204e-07
5.88283e-07
4.52576e-07
4.38047e-07
-1.17735e-08
-8.8001e-09
-4.10389e-08
-5.04791e-08
8.7983e-09
1.91331e-09
4.63513e-09
-5.44282e-09
2.74128e-08
1.05805e-08
2.6511e-08
5.69164e-09
5.77319e-08
4.23585e-08
7.192e-08
7.31075e-08
1.42236e-07
1.23418e-07
1.99382e-07
1.92465e-07
2.2481e-07
2.05825e-07
7.80145e-08
7.9846e-08
1.16152e-07
1.18812e-07
1.09621e-07
9.93521e-08
3.02948e-09
3.04769e-09
3.37976e-09
3.54249e-09
1.85339e-09
1.77624e-09
2.12932e-09
2.15982e-09
6.18254e-10
5.81384e-10
8.97669e-10
9.20994e-10
3.39175e-10
5.09745e-08
7.65471e-08
-1.06342e-07
-1.02694e-07
-3.76698e-10
-3.71463e-10
3.81912e-08
4.10948e-08
-3.15704e-08
-2.32943e-08
7.1379e-07
6.69197e-07
7.45846e-07
7.42145e-07
3.22201e-07
3.37569e-07
2.63778e-07
2.52057e-07
-2.18102e-07
-5.57564e-08
-1.0426e-07
-4.96668e-08
4.45316e-07
5.8114e-07
1.33039e-06
2.00339e-06
1.46829e-06
1.22486e-06
1.16287e-06
2.1354e-06
1.92278e-06
2.31345e-07
2.33996e-07
4.3472e-07
5.41966e-07
6.13115e-07
8.38505e-07
-2.07615e-07
-2.24104e-08
-7.03065e-08
3.08173e-07
3.10452e-07
2.70009e-08
8.85782e-08
2.04995e-07
-1.65985e-08
2.34749e-07
6.61677e-08
7.6498e-07
6.75431e-07
1.832e-06
1.95932e-06
1.36484e-06
1.35526e-06
1.40276e-06
1.25167e-06
1.23563e-06
1.07319e-06
1.9618e-07
1.88556e-07
2.63153e-07
2.94623e-07
6.61004e-07
6.50991e-07
7.2407e-07
6.96294e-07
4.62803e-07
4.60927e-07
4.16909e-07
3.89703e-07
2.88363e-07
2.60458e-07
-5.9404e-08
-5.26529e-08
4.42628e-08
5.11284e-08
9.06229e-09
2.86255e-09
6.50965e-09
-2.83948e-09
-2.68278e-09
-1.62871e-08
-1.64411e-08
-3.41254e-08
5.47402e-08
4.09496e-08
7.93259e-08
8.33517e-08
1.30061e-07
1.13637e-07
2.14218e-07
2.22611e-07
1.41861e-07
1.44118e-07
1.08211e-07
1.19712e-07
1.04819e-07
1.07242e-07
1.20984e-07
3.41904e-09
3.44252e-09
4.50223e-09
4.7802e-09
2.83851e-09
2.71061e-09
2.83159e-09
2.95556e-09
2.04646e-09
1.989e-09
1.38413e-09
1.44445e-09
6.38462e-10
6.06588e-10
5.19118e-10
5.08571e-10
1.8777e-09
1.926e-09
3.32709e-08
1.77712e-07
3.65428e-08
-2.97209e-08
-2.39825e-08
-2.10782e-07
-1.24478e-07
-1.57057e-07
-1.27912e-07
-2.09015e-10
-2.21535e-10
6.23369e-09
6.33792e-09
-3.25636e-08
-2.96375e-08
-2.85934e-08
-3.08852e-08
-1.13622e-07
-1.31319e-07
7.10002e-07
8.59905e-07
6.47591e-07
6.33488e-07
4.33146e-07
4.40728e-07
3.37133e-07
1.76141e-07
1.43935e-07
2.0854e-07
5.24936e-09
-1.04488e-07
-1.23117e-08
-6.39244e-08
1.21483e-06
2.1255e-06
1.75734e-06
1.7416e-06
1.66149e-06
1.64652e-06
1.60423e-06
2.3039e-06
2.54697e-06
1.5706e-07
1.58538e-07
2.2556e-07
2.0474e-07
2.82626e-07
2.55635e-07
8.64802e-07
7.6465e-07
1.67933e-07
1.897e-07
1.05245e-07
2.58975e-08
3.54976e-08
-4.91206e-08
-2.31113e-07
-8.02271e-08
-1.31197e-07
-7.65872e-08
-9.23087e-09
9.95413e-08
5.51171e-07
5.9448e-07
1.20349e-06
1.16138e-06
1.6447e-06
1.57918e-06
1.3306e-06
1.49417e-06
1.78313e-06
1.69961e-06
1.19078e-06
1.25792e-06
2.21547e-07
2.19787e-07
3.70618e-07
3.30242e-07
4.85387e-07
5.5136e-07
5.18946e-07
5.21681e-07
6.56532e-07
5.95294e-07
3.64259e-07
3.64855e-07
3.90888e-07
4.03106e-07
2.81875e-07
2.99082e-07
-3.57789e-08
-4.03063e-08
-1.162e-07
-9.35089e-08
5.52086e-08
6.47901e-08
3.00884e-08
3.72625e-08
1.58008e-08
2.29503e-08
1.60042e-08
2.57502e-08
7.47135e-09
-8.45063e-10
9.60126e-10
-1.15839e-08
-1.10164e-08
-2.68002e-08
6.86196e-08
8.21671e-08
5.14994e-08
3.92374e-08
1.04202e-07
1.06893e-07
9.09291e-08
9.83434e-08
1.18598e-07
1.04164e-07
1.49072e-07
1.72321e-07
1.44846e-07
1.40631e-07
2.53824e-07
2.57498e-07
1.69439e-07
1.77027e-07
1.40712e-07
1.32712e-07
1.19991e-07
1.08367e-07
9.0304e-08
8.19583e-08
3.40779e-09
3.35399e-09
3.01237e-09
2.99624e-09
3.44845e-09
3.60609e-09
2.43238e-09
2.46263e-09
1.8332e-09
1.91202e-09
2.65568e-09
2.60156e-09
1.55788e-09
1.50524e-09
8.82272e-10
8.65773e-10
6.46042e-10
6.77911e-10
3.51013e-10
3.46227e-10
3.85097e-10
3.36923e-10
1.34414e-09
1.26518e-09
9.11784e-10
9.05095e-10
-6.60176e-08
-3.11172e-08
3.5943e-07
2.07039e-07
-4.85964e-08
-4.60879e-08
3.01257e-08
7.67698e-09
-2.24807e-08
1.95346e-09
-1.0791e-07
-9.79206e-08
-1.95351e-10
-2.04187e-10
4.13732e-11
7.7539e-11
1.08674e-09
6.55161e-10
-1.72658e-09
-1.01384e-09
-1.28062e-08
-1.47136e-08
-2.95705e-08
-3.85331e-08
-1.66969e-08
-3.68487e-08
5.8799e-07
4.78004e-07
8.3907e-07
9.63535e-07
9.98747e-07
1.09688e-06
5.89194e-07
6.58911e-07
4.83022e-07
4.93183e-07
3.12971e-07
3.43649e-07
2.44364e-07
2.42804e-07
-9.29027e-08
-1.18968e-07
1.05054e-07
9.67296e-08
4.48068e-08
1.95125e-08
-1.16102e-08
2.61654e-07
1.71876e-07
1.17626e-06
1.10181e-06
1.90401e-06
1.50944e-06
1.47746e-06
1.42567e-06
2.25099e-06
2.49713e-06
1.43003e-07
1.44291e-07
2.63889e-07
2.39695e-07
2.09688e-07
2.11905e-07
6.70568e-07
7.39896e-07
9.61417e-07
1.10117e-06
-1.18707e-09
4.55988e-08
-1.24235e-07
2.37879e-08
1.03751e-07
1.00441e-07
2.13466e-07
-1.47318e-08
3.13315e-07
2.95605e-07
2.49736e-07
6.95356e-08
1.36322e-08
-8.82763e-08
1.71781e-08
6.79491e-07
6.21366e-07
1.7028e-06
1.56125e-06
1.52089e-06
1.52914e-06
1.58977e-06
1.41516e-06
2.65453e-07
1.81313e-07
2.61594e-07
2.69002e-07
2.31318e-07
4.80451e-07
5.36847e-07
5.71977e-07
5.05173e-07
6.31182e-07
7.35849e-07
6.20985e-07
6.44161e-07
4.97914e-07
5.31624e-07
3.11592e-07
3.1997e-07
4.09844e-07
4.11e-07
3.58372e-07
3.21435e-07
-1.64093e-08
-2.01466e-08
-4.10473e-08
-3.58781e-08
-8.04997e-08
-9.03447e-08
-5.37548e-08
-6.16771e-08
3.71903e-08
4.83063e-08
5.13053e-08
5.98429e-08
3.17936e-08
3.97932e-08
2.19109e-08
1.54203e-08
1.52e-08
2.61106e-08
3.27392e-09
-7.99943e-09
-5.66704e-09
-2.07859e-08
7.33451e-08
8.86981e-08
8.68859e-08
9.13729e-08
7.57496e-08
6.79914e-08
1.59102e-07
1.45528e-07
1.56753e-07
1.35125e-07
1.65186e-07
1.55429e-07
2.05284e-07
2.03835e-07
2.30023e-07
1.7259e-07
1.70264e-07
1.57031e-07
1.81172e-07
9.81082e-08
9.80901e-08
1.17884e-07
1.30667e-07
8.72311e-08
9.63404e-08
2.52201e-08
2.66932e-08
3.39604e-09
3.38388e-09
2.88489e-09
2.85285e-09
2.69074e-09
2.67758e-09
3.63456e-09
3.44357e-09
2.79636e-09
2.92861e-09
2.87446e-09
3.00302e-09
2.0452e-09
1.96313e-09
1.94013e-09
1.96997e-09
1.38942e-09
1.34014e-09
1.57847e-09
1.63463e-09
1.42979e-09
1.48962e-09
9.748e-10
1.00844e-09
7.13557e-10
6.77414e-10
6.76667e-10
6.93486e-10
4.82777e-10
4.97344e-10
3.33648e-10
3.28205e-10
3.83161e-10
3.36423e-10
3.89621e-10
3.38531e-10
1.35873e-09
1.32178e-09
3.78205e-10
1.72943e-10
2.73701e-10
-1.67967e-08
-2.05365e-08
3.9825e-07
2.41017e-07
4.29609e-07
4.37607e-07
3.86897e-07
4.50606e-07
6.61593e-07
-5.40453e-08
-4.79062e-08
2.32001e-08
4.05299e-08
1.08367e-08
2.97965e-08
-6.15928e-08
-9.01368e-08
-2.26112e-08
-3.6693e-08
4.57223e-09
3.37452e-09
1.57843e-11
1.91271e-11
-1.91896e-10
-2.00854e-10
-2.03113e-10
-2.10933e-10
-5.38308e-11
8.04518e-11
1.26409e-08
1.33605e-08
5.95304e-09
6.12446e-09
7.76174e-10
1.2452e-09
-3.55083e-10
2.35683e-10
-1.79026e-08
-1.57664e-08
-3.39563e-08
-1.46253e-08
-3.83707e-08
-3.6296e-08
-3.02232e-08
3.11624e-07
3.66586e-07
7.21784e-07
5.13692e-07
8.2786e-07
9.81707e-07
7.46572e-07
6.59568e-07
6.9454e-07
7.28606e-07
4.76344e-07
5.04624e-07
3.17948e-07
3.13153e-07
3.88811e-07
4.35002e-07
1.94154e-07
2.00773e-07
-6.18876e-08
-6.89064e-08
1.30689e-07
1.25045e-07
1.85578e-08
8.28797e-08
2.43414e-07
1.43209e-07
1.26953e-06
1.35429e-06
1.13268e-06
1.11519e-06
1.40209e-06
1.23429e-06
2.07551e-06
1.85474e-06
1.72765e-07
1.74418e-07
2.17498e-07
1.97718e-07
3.311e-07
4.31293e-07
6.78791e-07
6.13894e-07
1.02421e-06
1.12691e-06
1.28142e-07
1.13541e-07
-6.48464e-08
-9.18713e-08
-7.25925e-08
-1.43984e-07
7.74254e-08
7.03043e-08
2.69431e-08
7.45676e-09
-7.42552e-08
-6.49814e-08
2.32663e-07
1.94468e-07
-4.38161e-08
8.48729e-09
1.4042e-06
1.68715e-06
1.29008e-06
1.23763e-06
1.4773e-06
1.30788e-06
1.51005e-06
1.59125e-06
3.20736e-07
3.13178e-07
3.08674e-07
4.20688e-07
4.72963e-07
5.84216e-07
5.17174e-07
7.49402e-07
7.41765e-07
5.67753e-07
5.9175e-07
3.24434e-07
3.24843e-07
3.49986e-07
3.7312e-07
-3.60756e-08
-3.18003e-08
-4.54503e-08
-5.09591e-08
-8.77602e-08
-7.59383e-08
-4.85205e-08
-4.13222e-08
-6.04632e-08
5.93818e-08
7.01761e-08
4.72477e-08
4.11481e-08
1.58169e-08
2.38043e-08
2.70298e-08
1.49553e-08
6.96206e-09
2.62049e-08
1.15009e-07
1.1811e-07
6.38557e-08
5.76663e-08
8.94935e-08
8.29404e-08
1.18906e-07
1.09439e-07
1.59908e-07
1.75281e-07
1.4907e-07
1.40813e-07
1.61244e-07
1.63809e-07
2.85853e-07
2.89394e-07
2.88899e-07
2.84889e-07
2.05993e-07
1.91671e-07
1.89624e-07
8.8981e-08
8.9095e-08
1.24764e-07
1.39265e-07
9.15964e-08
1.01268e-07
3.37941e-09
3.36612e-09
3.34304e-09
3.331e-09
2.88215e-09
2.91597e-09
2.97291e-09
3.00766e-09
4.13255e-09
4.28753e-09
3.55633e-09
3.75402e-09
2.87719e-09
3.00981e-09
2.49038e-09
2.39619e-09
1.99586e-09
1.9347e-09
2.53222e-09
2.56708e-09
1.88283e-09
1.91316e-09
1.57555e-09
1.52719e-09
1.07601e-09
1.04142e-09
1.58152e-09
1.62194e-09
1.26374e-09
1.21706e-09
1.52185e-09
1.58183e-09
1.35722e-09
1.41624e-09
8.14755e-10
7.83203e-10
9.07341e-10
9.34839e-10
7.15413e-10
7.49355e-10
7.66871e-10
7.81955e-10
4.92749e-10
5.02934e-10
3.35356e-10
3.41249e-10
3.82532e-10
3.36348e-10
4.06224e-10
4.17021e-10
1.0075e-09
9.81132e-10
1.32571e-09
1.36165e-09
9.23218e-10
9.18918e-10
7.42746e-10
7.31509e-10
2.65481e-07
2.24703e-07
2.03946e-07
-3.097e-08
-4.42958e-08
1.72128e-07
6.14036e-08
1.22319e-07
3.16921e-08
3.24685e-09
2.82046e-09
3.39887e-07
3.08494e-07
-5.7425e-08
-5.67769e-08
-4.03297e-08
-3.57905e-08
2.90124e-08
3.77919e-09
-2.37898e-07
-6.70884e-08
-1.15483e-07
-8.62566e-08
4.14002e-09
4.65942e-09
2.15321e-09
2.38643e-09
-4.71294e-10
-4.80888e-10
-2.22554e-10
-2.29483e-10
-1.98309e-10
-1.89113e-10
-2.10685e-10
-2.20679e-10
-1.09e-10
1.70667e-11
3.46758e-11
2.27215e-11
4.48412e-08
4.86767e-08
4.20966e-09
4.39797e-09
5.23635e-09
6.14544e-09
3.49608e-08
3.77849e-08
4.01722e-09
3.67841e-09
-1.9559e-09
-2.78602e-09
-1.58041e-08
-1.38802e-08
-2.11181e-08
-2.24723e-08
-2.77746e-08
-2.33075e-08
-2.91273e-08
-1.03648e-07
7.55216e-07
6.59497e-07
1.11538e-06
9.83869e-07
5.69577e-07
5.41675e-07
4.69744e-07
5.25763e-07
3.48133e-07
3.53582e-07
2.54049e-07
2.19046e-07
2.26779e-07
2.69461e-07
-1.06773e-07
-6.60645e-08
-6.054e-08
-5.46683e-08
-4.1166e-08
1.50911e-07
1.28123e-07
2.67836e-08
3.59711e-08
6.84834e-07
3.9455e-07
5.30835e-07
3.86096e-07
8.63328e-07
7.51933e-07
1.33041e-06
1.71258e-06
1.51797e-06
1.26481e-06
1.22794e-06
1.95137e-07
1.79123e-07
1.6364e-07
1.69043e-07
2.48964e-07
2.7469e-07
6.02074e-07
5.00603e-07
4.14917e-07
3.00741e-07
3.97763e-07
2.02586e-07
1.15953e-07
6.60064e-08
9.43765e-08
9.59185e-09
6.95276e-08
-9.77522e-08
8.98502e-08
1.83715e-07
1.62287e-07
1.21505e-07
8.7534e-08
4.68332e-08
4.41448e-08
-5.39047e-08
-5.26316e-08
1.24168e-07
5.77674e-07
4.8366e-07
1.06788e-06
1.0761e-06
1.37567e-06
1.44741e-06
1.21596e-06
1.21118e-06
3.95553e-07
4.06417e-07
3.0929e-07
3.03949e-07
4.12119e-07
4.71425e-07
5.33265e-07
5.84177e-07
4.92076e-07
5.09098e-07
6.58502e-07
6.64037e-07
3.5861e-07
3.4821e-07
-2.59382e-08
-2.23164e-08
-4.71469e-08
-4.04885e-08
-4.63612e-08
-4.09862e-08
-1.01323e-07
-1.10781e-07
-3.53048e-08
-2.90368e-08
-7.24109e-08
-7.00894e-08
4.5427e-08
3.55682e-08
4.76581e-08
5.53534e-08
1.19681e-08
2.71152e-08
8.07604e-08
8.13695e-08
6.81602e-08
6.34837e-08
9.99546e-08
1.08341e-07
1.08309e-07
9.57064e-08
1.55955e-07
1.60887e-07
1.3469e-07
1.27425e-07
1.82732e-07
1.82115e-07
2.58101e-07
2.55269e-07
2.2565e-07
2.2964e-07
2.28057e-07
2.11552e-07
8.79705e-08
8.59647e-08
8.07666e-08
8.08063e-08
1.06339e-07
1.12153e-07
3.42113e-09
3.43576e-09
2.84354e-09
2.87746e-09
2.95079e-09
2.98088e-09
3.0343e-09
3.02012e-09
2.85682e-09
2.8638e-09
4.59856e-09
4.6514e-09
3.97129e-09
3.84376e-09
3.27067e-09
3.11681e-09
3.06853e-09
2.97343e-09
2.92453e-09
3.05233e-09
2.20444e-09
2.2962e-09
1.92386e-09
1.88669e-09
2.62042e-09
2.5847e-09
2.0573e-09
1.99325e-09
1.4848e-09
1.43265e-09
1.29855e-09
1.24956e-09
1.43813e-09
1.43998e-09
1.48106e-09
1.52632e-09
1.56671e-09
1.50581e-09
1.22005e-09
1.17226e-09
1.56505e-09
1.62277e-09
1.54986e-09
1.50808e-09
9.12382e-10
8.81899e-10
8.41972e-10
8.1092e-10
9.47024e-10
9.80905e-10
9.38452e-10
9.67825e-10
7.48607e-10
7.81968e-10
1.0616e-09
1.09844e-09
9.25703e-10
8.9348e-10
1.70742e-10
1.87574e-10
3.46213e-10
3.55372e-10
3.48497e-10
3.40026e-10
3.37281e-10
3.33672e-10
3.84332e-10
3.36651e-10
3.62167e-10
3.56107e-10
1.00843e-09
9.82492e-10
1.28926e-09
1.27273e-09
1.09023e-09
1.08152e-09
8.72985e-10
8.77788e-10
8.81926e-10
8.88532e-10
6.22406e-10
6.14914e-10
2.82464e-10
2.59376e-10
1.56125e-07
1.85445e-07
-1.61415e-09
7.49227e-09
1.44393e-07
1.6262e-07
1.36047e-08
-2.45726e-08
1.0207e-07
1.39862e-08
1.46417e-07
6.00915e-08
6.3988e-08
9.71907e-07
1.11759e-06
-7.17763e-08
-5.85504e-08
-8.94879e-08
-3.58402e-08
-4.24373e-08
-1.6946e-08
-3.61414e-08
1.77079e-07
-1.016e-08
1.07792e-07
-2.08319e-08
-3.13703e-08
-8.11957e-08
-7.47399e-08
-2.10122e-08
-1.57648e-08
3.10894e-09
4.27574e-09
-2.75289e-10
-2.83377e-10
-4.17179e-10
-3.87357e-10
2.51488e-10
2.75719e-10
-1.29669e-10
-1.41386e-10
-2.04563e-10
-1.959e-10
-6.91676e-11
-3.1342e-11
2.35825e-11
3.49538e-11
3.05084e-08
3.29263e-08
3.60503e-08
3.89502e-08
4.47822e-09
4.38558e-09
2.40087e-09
2.18614e-09
1.22427e-09
4.60358e-10
2.24866e-10
-1.09932e-10
3.3223e-09
2.88671e-09
7.59806e-10
1.23303e-09
-4.12765e-09
-3.16701e-09
-1.45153e-08
-1.26971e-08
-1.68943e-08
-1.92122e-08
-3.15117e-08
-3.3881e-08
4.66533e-07
4.33099e-07
5.19742e-07
4.3022e-07
1.00312e-06
1.14083e-06
8.12833e-07
9.05981e-07
4.50064e-07
4.23273e-07
3.8809e-07
3.94225e-07
3.07114e-07
3.41117e-07
2.73115e-07
3.07326e-07
-5.25885e-08
-1.64562e-08
2.32081e-08
5.63415e-08
1.01592e-07
1.64712e-07
1.60884e-07
6.04544e-08
6.52367e-08
3.92021e-07
3.42976e-07
1.16112e-06
1.00026e-06
1.46891e-06
1.68381e-06
1.35927e-07
1.40136e-07
1.85865e-07
1.79709e-07
1.04842e-06
1.15732e-06
5.44154e-07
6.14392e-07
8.19466e-07
6.83439e-07
8.08409e-08
8.42663e-08
-4.3966e-09
1.62065e-07
1.14259e-07
2.63698e-07
2.03979e-07
9.31763e-08
1.87674e-08
1.26389e-07
1.23773e-07
-4.50679e-08
-7.10771e-08
-8.38409e-08
-9.32265e-08
1.69777e-07
2.01009e-07
9.73254e-08
7.10041e-08
9.17631e-08
1.33795e-08
-4.55194e-08
-2.30461e-09
-2.75495e-08
-2.26668e-08
1.21841e-06
8.63681e-07
9.56059e-07
7.86474e-07
1.20051e-06
1.21222e-06
1.8536e-06
2.1274e-06
1.81128e-06
9.56222e-07
9.5803e-07
1.19601e-06
1.16527e-06
4.46355e-07
4.58043e-07
2.94585e-07
3.27383e-07
3.35177e-07
3.70793e-07
5.1611e-07
4.56471e-07
5.71989e-07
5.51727e-07
-2.00266e-08
-1.68422e-08
-2.78928e-08
-3.16195e-08
-3.48678e-08
-3.0068e-08
-7.27117e-08
-6.54337e-08
-9.10431e-08
-1.20977e-07
-9.96744e-08
-1.0701e-07
-1.03585e-07
-6.77203e-08
-8.24188e-08
-5.32959e-08
4.25593e-08
3.36644e-08
8.7337e-08
8.8671e-08
6.94436e-08
7.44592e-08
6.96735e-08
6.27023e-08
1.20352e-07
1.31045e-07
9.88985e-08
8.77455e-08
1.73224e-07
1.79004e-07
1.83761e-07
1.82628e-07
2.30396e-07
2.281e-07
2.52364e-07
2.34156e-07
9.70498e-08
9.48227e-08
4.73624e-09
4.58219e-09
2.91641e-09
2.87661e-09
2.56927e-09
2.5178e-09
2.86382e-09
2.82973e-09
2.98118e-09
2.96463e-09
2.99812e-09
2.99091e-09
2.32773e-09
2.34822e-09
3.30592e-09
3.19359e-09
4.07881e-09
4.02542e-09
3.66113e-09
3.77282e-09
3.6521e-09
3.85363e-09
3.01827e-09
3.1507e-09
3.21611e-09
3.37652e-09
3.15124e-09
2.95651e-09
3.08515e-09
2.80316e-09
2.59286e-09
2.48704e-09
2.10457e-09
2.01903e-09
1.44173e-09
1.40238e-09
1.91244e-09
1.96261e-09
2.39019e-09
2.41641e-09
2.35021e-09
2.31802e-09
2.35069e-09
2.32867e-09
2.1891e-09
2.25696e-09
1.60786e-09
1.65053e-09
1.36029e-09
1.31068e-09
1.12417e-09
1.07666e-09
1.27132e-09
1.23507e-09
1.49833e-09
1.32401e-09
1.68892e-09
1.65497e-09
1.40332e-09
1.34587e-09
1.44702e-09
1.38695e-09
1.06611e-09
1.02179e-09
8.48407e-10
8.84249e-10
9.46339e-10
9.161e-10
8.73574e-10
9.0433e-10
7.76735e-10
7.47108e-10
6.54484e-10
6.8238e-10
1.13234e-09
1.10532e-09
1.06257e-09
1.09586e-09
8.33912e-10
8.60634e-10
9.66641e-10
3.87586e-10
3.7701e-10
4.51482e-10
4.65031e-10
4.60786e-10
4.73357e-10
3.59143e-10
3.85897e-10
3.50543e-10
3.56718e-10
3.42931e-10
3.46011e-10
3.37316e-10
3.42171e-10
3.43169e-10
3.40916e-10
3.6588e-10
3.7496e-10
3.88594e-10
3.38193e-10
1.89065e-09
1.93873e-09
1.16251e-09
1.16377e-09
9.91445e-10
9.92995e-10
9.80828e-10
9.56489e-10
8.38079e-10
8.44516e-10
8.95645e-10
9.0041e-10
6.90798e-10
6.86126e-10
5.03948e-10
5.06266e-10
2.87462e-10
3.71906e-10
-7.05594e-08
-8.29855e-08
2.39583e-08
3.23294e-08
-4.09914e-08
3.72585e-08
3.61408e-08
1.99624e-08
-1.57262e-08
7.55624e-08
-2.65339e-08
2.76836e-07
-3.11783e-09
-2.26239e-09
1.30225e-07
1.22476e-07
8.49446e-07
8.6456e-07
2.71219e-07
3.08555e-07
-6.50803e-08
-6.41784e-08
4.24368e-08
5.21648e-08
-2.18613e-08
-6.30483e-09
9.47061e-09
6.62827e-08
1.27876e-07
2.75614e-08
-3.07066e-08
-6.33985e-08
-8.21663e-08
-2.09839e-08
-4.66892e-08
-9.84921e-08
-8.64959e-09
-8.50604e-09
1.6715e-09
2.21851e-09
1.13119e-09
1.06462e-10
-4.66739e-10
-4.63213e-10
-3.62553e-10
-3.5891e-10
-4.40203e-10
-4.07932e-10
2.59008e-10
2.67634e-10
-1.08823e-10
-9.57272e-11
-1.47181e-10
-1.37898e-10
-2.20094e-10
-2.28931e-10
-2.09101e-10
-2.16952e-10
-1.07865e-10
-1.16927e-10
2.04794e-11
5.70155e-11
4.28082e-11
3.21953e-11
2.04161e-10
2.14249e-10
4.77303e-08
5.17216e-08
4.17725e-08
4.51501e-08
6.38699e-09
6.23212e-09
7.8897e-09
7.57323e-09
4.25399e-09
-1.10473e-09
9.79289e-10
-7.59772e-10
-4.02524e-10
2.63423e-08
2.45769e-08
-1.8133e-09
-1.02553e-09
1.70457e-09
2.08691e-09
-2.83096e-09
-1.9987e-09
-6.68878e-09
-8.00553e-09
-1.93862e-08
-1.69658e-08
-1.69064e-08
-1.49103e-08
-2.323e-08
-2.11451e-08
-1.13356e-07
-1.25946e-07
4.99151e-07
4.82588e-07
4.81019e-07
3.91954e-07
8.90956e-07
8.86977e-07
1.00152e-06
1.11678e-06
4.02397e-07
3.77851e-07
5.39741e-07
5.47102e-07
2.85363e-07
2.8258e-07
-1.17808e-07
-1.33021e-07
-5.01535e-08
1.42158e-07
1.455e-06
1.54013e-06
1.5381e-07
1.49084e-07
1.2631e-06
5.5275e-07
4.99947e-07
7.67424e-07
5.62841e-07
2.371e-08
4.78787e-08
1.24756e-07
3.07109e-07
2.36611e-07
2.02291e-07
5.64716e-08
2.65106e-09
-1.83863e-08
-1.07478e-07
-1.13935e-07
-1.28994e-07
1.75201e-07
2.24121e-07
7.01203e-08
6.73574e-08
1.54126e-08
4.19135e-08
-2.68442e-08
5.68611e-07
4.59189e-07
4.01008e-07
7.39437e-07
7.52697e-07
8.00613e-07
8.49979e-07
9.87265e-07
8.57506e-07
1.52174e-06
1.5249e-06
1.88471e-06
1.84546e-06
8.46248e-07
8.43863e-07
1.03512e-06
1.06258e-06
4.01538e-07
4.27339e-07
3.48832e-07
3.60006e-07
4.24813e-07
3.79722e-07
-1.88799e-08
-1.48508e-08
-6.76179e-09
-4.68228e-09
-1.42002e-08
-1.91729e-08
-2.37258e-08
-4.71042e-08
-5.39222e-08
-6.73283e-08
-7.18673e-08
-1.22696e-07
-1.19453e-07
-9.19949e-08
-3.44873e-08
-4.51233e-08
-6.91516e-08
1.15754e-07
1.22049e-07
9.50605e-08
9.71975e-08
5.85305e-08
5.30318e-08
1.32262e-07
1.4436e-07
1.64846e-07
1.63937e-07
2.14605e-07
2.22445e-07
3.03013e-09
3.06765e-09
8.5735e-09
8.25646e-09
2.67295e-09
2.73669e-09
5.39761e-09
5.54229e-09
3.4117e-09
3.34677e-09
2.77895e-09
2.75388e-09
2.93949e-09
2.9192e-09
2.94705e-09
2.91701e-09
2.94234e-09
2.94543e-09
2.91518e-09
2.49275e-09
2.47574e-09
2.43824e-09
2.37035e-09
3.11593e-09
3.1575e-09
4.0133e-09
4.15561e-09
4.39385e-09
4.3902e-09
4.2877e-09
4.35885e-09
4.20753e-09
4.4606e-09
4.0779e-09
3.22711e-09
3.29398e-09
3.30348e-09
3.468e-09
2.97167e-09
3.09528e-09
2.71226e-09
2.75385e-09
2.00106e-09
2.08273e-09
2.08167e-09
2.17117e-09
1.61682e-09
1.57657e-09
1.93656e-09
1.88794e-09
2.25844e-09
2.20382e-09
2.36344e-09
2.77356e-09
2.73681e-09
1.91005e-09
1.85233e-09
1.92715e-09
1.9612e-09
2.15265e-09
2.17813e-09
1.55038e-09
1.4987e-09
1.71375e-09
1.66829e-09
1.35031e-09
1.41231e-09
1.18132e-09
1.13362e-09
1.174e-09
1.27558e-09
1.31483e-09
1.44938e-09
1.40169e-09
1.5957e-09
1.53834e-09
1.3085e-09
1.35055e-09
1.46265e-09
1.50543e-09
1.25326e-09
1.31106e-09
9.65995e-10
9.29372e-10
9.52866e-10
8.4584e-10
8.16537e-10
1.01396e-09
1.04993e-09
9.39817e-10
7.84142e-10
8.1101e-10
7.16667e-10
7.45476e-10
7.13901e-10
1.54039e-09
1.51507e-09
1.09646e-09
1.13107e-09
9.72728e-10
1.01438e-09
8.99365e-10
9.31446e-10
6.70276e-10
6.5408e-10
4.86633e-10
4.9851e-10
5.13863e-10
3.7123e-10
3.26526e-10
4.72204e-10
4.8597e-10
3.57098e-10
3.5497e-10
3.55385e-10
3.61658e-10
3.66368e-10
3.57604e-10
3.49819e-10
3.52777e-10
3.41335e-10
3.47009e-10
3.38199e-10
3.35944e-10
3.81552e-10
3.73674e-10
3.60821e-10
3.68611e-10
3.68819e-10
3.59297e-10
1.6809e-09
1.63715e-09
1.33999e-09
1.30527e-09
1.12252e-09
1.12709e-09
1.20705e-09
1.21318e-09
1.27368e-09
1.29891e-09
1.0549e-09
1.06371e-09
9.66543e-10
9.57966e-10
9.00225e-10
9.26313e-10
8.50675e-10
8.55266e-10
7.63069e-10
7.50888e-10
6.81995e-10
6.75598e-10
3.46229e-10
3.46055e-10
2.81965e-10
4.59616e-10
3.5239e-10
2.15828e-09
2.20496e-09
6.23136e-07
5.49546e-07
4.0764e-08
1.52434e-07
1.02222e-07
4.3201e-08
1.01226e-09
9.98519e-08
1.38149e-07
2.50559e-08
-2.8128e-08
-1.89109e-07
2.94398e-09
2.56416e-09
7.23081e-08
6.77801e-08
3.18345e-07
2.80916e-07
7.10737e-07
7.17e-07
9.69251e-07
1.0729e-06
6.68423e-07
7.13179e-07
1.92786e-07
1.16061e-07
-7.70915e-09
9.39728e-09
4.23267e-08
6.16346e-08
-5.20853e-08
-4.40548e-08
-3.55826e-08
1.39684e-07
5.9199e-08
1.97006e-08
1.6569e-07
2.08082e-07
1.30927e-08
-1.7368e-08
-3.68409e-08
4.03671e-07
3.52774e-07
3.33675e-07
-2.30607e-08
-2.21462e-08
-2.1353e-08
7.80693e-09
6.03459e-09
2.74188e-10
2.66196e-10
-8.54659e-10
-8.49591e-10
-3.53471e-10
-3.64142e-10
-1.98512e-10
-1.99653e-10
-3.50376e-10
-3.48103e-10
-4.62528e-10
-4.28229e-10
-3.08455e-10
-3.11757e-10
2.44337e-10
2.36257e-10
-2.03114e-10
-2.11605e-10
-1.47947e-10
-1.37835e-10
-1.57006e-10
-1.49105e-10
-2.12853e-10
-2.23244e-10
-1.77111e-10
-1.68166e-10
-1.97997e-10
-2.0956e-10
-1.50319e-10
-1.66946e-10
1.30441e-12
1.02984e-11
8.0761e-11
1.0906e-10
4.44328e-12
-4.49119e-14
-6.58215e-12
2.8501e-11
2.77198e-11
4.99201e-11
3.21154e-10
2.93188e-10
4.09624e-08
4.42807e-08
3.57469e-08
3.32178e-08
6.72434e-09
6.92479e-09
7.35062e-09
7.64254e-09
3.94371e-09
4.65312e-09
3.3942e-09
2.97854e-09
8.72381e-11
5.69972e-10
1.96597e-08
1.84131e-08
-1.08059e-08
-1.42794e-08
2.95085e-09
3.20473e-09
1.71809e-10
-4.48807e-10
-3.59295e-09
-2.68202e-09
-9.46711e-09
-1.10492e-08
-2.61703e-08
-2.93081e-08
-1.31055e-08
-1.13684e-08
-2.12145e-08
-1.91117e-08
-1.86861e-08
-1.6438e-08
1.39132e-08
1.35866e-08
5.93485e-07
6.79129e-07
7.08582e-07
4.21439e-07
3.79336e-07
7.96671e-07
7.86e-07
4.20738e-07
-8.8406e-08
1.6823e-08
1.46492e-08
1.0564e-06
9.74185e-07
1.23221e-06
4.95761e-07
4.53787e-07
1.80559e-07
1.45272e-07
2.85037e-07
2.52265e-07
2.71119e-07
1.41933e-07
-2.94864e-08
-1.18284e-07
-1.30349e-07
-4.65294e-08
-7.18752e-08
-1.67711e-07
1.47624e-07
1.81551e-07
4.77071e-09
-3.35788e-09
3.98311e-07
2.68933e-07
4.52662e-07
5.30481e-07
4.14139e-07
9.42915e-07
1.147e-06
8.91506e-07
9.22489e-07
8.74949e-07
7.66461e-07
1.35886e-06
1.36444e-06
1.65492e-06
1.70282e-06
8.16118e-07
8.36633e-07
1.0772e-06
1.08103e-06
3.77074e-07
3.52014e-07
-2.35619e-08
-2.7833e-08
-3.11656e-09
-8.8293e-09
-2.72875e-08
-3.13083e-08
-5.53017e-08
-6.16295e-08
-1.08143e-07
-1.01311e-07
-2.34048e-08
1.10606e-07
1.04969e-07
1.27065e-07
1.3066e-07
7.59738e-08
8.16778e-08
2.03329e-07
1.97065e-07
-6.89529e-09
-8.1764e-09
2.43515e-08
2.38928e-08
8.42946e-09
8.23426e-09
2.53407e-09
2.50559e-09
2.85815e-09
2.85346e-09
5.33809e-09
5.49759e-09
3.09939e-09
3.08166e-09
3.67944e-09
3.7404e-09
2.9875e-09
2.97974e-09
2.76001e-09
2.79427e-09
2.84939e-09
2.8112e-09
2.91344e-09
2.89376e-09
2.91584e-09
2.88423e-09
2.88595e-09
2.84424e-09
2.56789e-09
2.55443e-09
2.41892e-09
2.39946e-09
2.89242e-09
2.94066e-09
3.7841e-09
3.88975e-09
3.89896e-09
4.02392e-09
4.35549e-09
4.52184e-09
3.6157e-09
3.53879e-09
4.72223e-09
4.80646e-09
4.1631e-09
4.23888e-09
4.31757e-09
4.07298e-09
3.08567e-09
2.95259e-09
2.83412e-09
2.85664e-09
2.70887e-09
2.82769e-09
2.02943e-09
1.94836e-09
2.14633e-09
2.23679e-09
1.41469e-09
1.37402e-09
1.5619e-09
1.52179e-09
1.90779e-09
1.85979e-09
2.32819e-09
2.35403e-09
2.57303e-09
2.60396e-09
2.68663e-09
2.72321e-09
2.33246e-09
2.27865e-09
2.28241e-09
2.30581e-09
2.02653e-09
1.99239e-09
2.30466e-09
2.2816e-09
2.06153e-09
2.02012e-09
1.54633e-09
1.59207e-09
1.54067e-09
1.58594e-09
1.40089e-09
1.44998e-09
1.47454e-09
1.42201e-09
1.22312e-09
1.27199e-09
1.23903e-09
1.19019e-09
1.17837e-09
1.21471e-09
1.28036e-09
1.24199e-09
1.44199e-09
1.36545e-09
1.79651e-09
1.76793e-09
1.32905e-09
1.27321e-09
1.30024e-09
1.25704e-09
1.13269e-09
1.1809e-09
1.30138e-09
1.35915e-09
1.01263e-09
9.72874e-10
7.84373e-10
7.54394e-10
1.05367e-09
1.09177e-09
8.08613e-10
8.42366e-10
8.15848e-10
8.39204e-10
7.7655e-10
7.48454e-10
1.11405e-09
1.08692e-09
9.36983e-10
9.11084e-10
1.03001e-09
1.06417e-09
8.35323e-10
9.84702e-10
8.925e-10
8.63606e-10
3.66732e-10
3.56503e-10
2.52397e-10
2.47407e-10
3.04548e-10
3.09976e-10
4.91213e-10
5.07116e-10
4.77628e-10
4.8733e-10
4.48047e-10
4.58796e-10
4.05227e-10
4.11985e-10
3.66396e-10
3.69476e-10
3.66234e-10
3.73547e-10
3.49267e-10
3.42949e-10
3.79612e-10
3.37215e-10
3.44862e-10
3.51602e-10
3.92437e-10
4.02024e-10
3.70444e-10
3.80319e-10
3.91779e-10
3.39367e-10
3.94127e-10
3.4055e-10
1.79653e-09
1.80017e-09
1.6461e-09
1.68904e-09
1.32274e-09
1.35791e-09
1.13204e-09
1.13447e-09
1.29541e-09
1.28588e-09
1.29386e-09
1.31247e-09
1.02801e-09
1.03494e-09
1.03205e-09
1.05724e-09
9.18752e-10
9.42562e-10
9.45361e-10
9.327e-10
8.66241e-10
8.59391e-10
7.73351e-10
7.27862e-10
6.50872e-10
6.5822e-10
5.01314e-10
5.15164e-10
5.58858e-10
5.53645e-10
3.85182e-10
3.89308e-10
3.50256e-10
2.30362e-09
-3.49025e-10
-1.24933e-07
-1.30686e-07
5.10161e-07
4.46158e-07
-6.78397e-08
-9.70165e-08
1.59289e-07
1.06157e-07
2.05942e-08
8.24233e-08
1.72906e-07
2.06768e-07
2.16061e-07
2.15176e-07
5.1031e-08
1.00968e-07
2.1813e-07
2.7517e-07
-4.72875e-08
-4.29163e-08
1.77718e-08
2.08322e-08
4.6246e-08
6.55813e-08
1.25099e-07
1.10909e-07
3.03069e-07
3.42437e-07
6.36436e-07
6.37593e-07
6.51475e-07
6.80348e-07
9.835e-07
1.0858e-06
6.36214e-07
5.98738e-07
1.07156e-06
1.0132e-06
2.18654e-07
1.53691e-07
2.97437e-08
7.29014e-09
-3.9833e-09
5.20634e-08
-2.885e-08
-1.13018e-08
2.53217e-08
7.07881e-08
9.25946e-08
1.34886e-07
1.79323e-07
1.5108e-07
1.9437e-08
-2.11236e-08