/*--------------------------------*- C++ -*----------------------------------*\
  =========                 |
  \\      /  F ield         | OpenFOAM: The Open Source CFD Toolbox
   \\    /   O peration     | Website:  https://openfoam.org
    \\  /    A nd           | Version:  7
     \\/     M anipulation  |
\*---------------------------------------------------------------------------*/
FoamFile
{
    version     2.0;
    format      ascii;
    class       volScalarField;
    location    "1740";
    object      T;
}
// * * * * * * * * * * * * * * * * * * * * * * * * * * * * * * * * * * * * * //

dimensions      [0 0 0 1 0 0 0];

internalField   nonuniform List<scalar> 
238806
(
0.0888698
0.0823885
0.283064
0.419505
0.362463
0.07657
0.0851658
0.0631886
0.0671055
0.177566
0.165129
0.355207
0.0670895
0.0610263
0.530094
0.498986
0.206186
0.188776
0.0543554
0.0607601
0.0615237
0.0644646
0.404095
0.311741
0.414155
0.25741
0.2459
0.289787
0.327599
0.433384
0.0715408
0.0744003
0.138967
0.124036
0.0855901
0.0851444
0.969884
0.973823
0.159988
0.144956
0.150621
0.416281
0.0830796
0.0831202
0.0591326
0.0550338
0.221705
0.19955
0.109659
0.0948517
0.0665791
0.0742736
0.065394
0.0594108
0.233291
0.249475
0.187554
0.189075
0.170601
0.210416
0.192541
0.232605
0.137643
0.125195
0.117278
0.0700832
0.0583311
0.0711611
0.0940967
0.0671374
0.0634416
0.10888
0.122658
0.0886097
0.10207
0.0643181
0.0597634
0.0852204
0.0846807
0.113181
0.11292
0.119184
0.101946
0.0864405
0.0681285
0.0661173
0.0643367
0.296779
0.320398
0.288812
0.286121
0.176913
0.165136
0.0877465
0.124615
0.0892129
0.0888174
0.148813
0.171648
0.44649
0.0555399
0.0474491
0.0525945
0.0659784
0.0764215
0.0720939
0.0776867
0.0795489
0.089961
0.116197
0.130504
0.0642173
0.0600982
0.0756751
0.0683953
0.073903
0.0723478
1.02666
1.04507
1.03814
0.534285
0.649198
0.0699942
0.08603
0.0756661
0.0844557
0.413663
0.546562
0.276648
0.356897
0.154199
0.213637
0.249922
0.439977
0.238719
0.188042
0.0663295
0.0666358
0.413292
0.453452
0.378941
0.447144
0.131191
0.130746
0.186415
0.0475486
0.0572932
0.0508983
0.0480515
0.0485777
0.0542257
0.0503925
0.0497348
0.0938261
0.103784
0.0710265
0.0780683
0.102213
0.115345
0.0614022
0.0636457
0.0657738
0.0609184
0.0592896
0.0521393
0.0743316
0.0731484
0.115857
0.111495
0.9118
0.921149
0.111431
0.0964158
0.668108
0.633119
0.837326
0.0692062
0.0865121
0.0710365
0.0623705
0.444161
0.592015
0.506932
0.250732
0.24555
0.227657
0.208188
0.307683
0.0885919
0.0887906
0.0635501
0.0635367
0.148338
0.215392
0.187427
0.195702
0.164566
0.403271
0.524105
0.320124
0.424017
0.0922198
0.0680879
0.080652
0.105917
0.0754797
0.0989979
0.0718121
0.0693049
0.05239
0.0486631
0.253593
0.273966
0.109597
0.120397
0.127406
0.114654
0.177844
0.156415
0.0955218
0.0836389
0.0594306
0.0628599
0.0580709
0.0612017
0.0529234
0.06005
0.0817362
0.0810496
0.123024
0.121837
0.139109
0.136929
0.183369
0.18057
0.268443
0.275352
0.0620862
0.0643075
0.229779
0.245132
0.668603
0.720195
0.160221
0.16002
0.0709808
0.0854602
0.0599513
0.068352
0.0582824
0.058624
0.0947516
0.090812
0.177758
0.197714
0.218988
0.229324
0.181879
0.185609
0.12778
0.128998
0.0639909
0.0637342
0.0862801
0.0903947
0.0726759
0.0755471
0.157681
0.143829
0.211879
0.230216
0.144976
0.319343
0.282987
0.38556
0.332485
0.0691093
0.093134
0.0494591
0.0638089
0.0547413
0.0472779
0.0582071
0.0594536
0.0758072
0.0815663
0.0655907
0.0543431
0.144744
0.137886
0.209311
0.228276
0.105242
0.115534
0.126279
0.138978
0.128889
0.143793
0.146219
0.165038
0.0963043
0.108606
0.0774031
0.072724
0.0666695
0.0742094
0.0781336
0.0715863
0.0628075
0.0587654
0.0805032
0.0857719
0.0755266
0.0824698
0.0537928
0.0550312
0.338579
0.339255
0.128916
0.127713
0.153047
0.155002
0.114379
0.114752
0.211418
0.215836
0.284805
0.277693
1.03511
0.105312
0.0919978
0.523899
0.446225
0.361885
0.367866
0.0589011
0.0581266
0.366281
0.365894
0.152534
0.188706
0.075021
0.0835768
0.0610582
0.0696643
0.0603165
0.066495
0.466642
0.427354
0.337648
0.457575
0.301415
0.30585
0.260044
0.286314
0.070339
0.0717892
0.0615515
0.0831732
0.0833929
0.0846299
0.0896011
0.13934
0.107624
0.204826
0.143501
0.39135
0.345647
0.480694
0.138342
0.128993
0.265269
0.22126
0.482221
0.358689
0.285641
0.340249
0.105173
0.138749
0.193411
0.134526
0.0685959
0.0577576
0.0931298
0.124051
0.086795
0.115205
0.0742337
0.0768636
0.0822447
0.0867271
0.0765248
0.0664587
0.0587436
0.0489641
0.0820847
0.0773061
0.0490372
0.0511058
0.0554539
0.0536719
0.24968
0.232752
0.0685794
0.0649285
0.10142
0.111219
0.120076
0.132032
0.149847
0.165553
0.183539
0.203131
0.0911733
0.102507
0.0712917
0.0759547
0.0649365
0.071321
0.0700624
0.0769615
0.0555437
0.0537416
0.0862614
0.085746
0.0767363
0.083239
0.0526987
0.149247
0.147556
0.12066
0.119604
0.134581
0.136351
0.126927
0.125761
0.142787
0.144849
0.152637
0.150071
0.209155
0.212442
0.50532
0.554805
0.239718
0.235872
0.224866
0.200191
0.205549
0.154726
0.144118
0.58833
0.633729
0.502965
0.60391
0.228597
0.244459
0.0910125
0.0900693
0.307791
0.304306
0.888938
1.06703
0.621969
0.757005
0.207752
0.16451
0.0568396
0.0612833
0.0791667
0.0863338
0.0582481
0.0820505
0.0724567
0.0807525
0.290693
0.278428
0.373874
0.484168
0.214514
0.312918
0.237484
0.0867803
0.121625
0.054674
0.0660119
0.0543371
0.0542494
0.0877864
0.0912242
0.0758293
0.0772367
0.0827174
0.0837194
0.101969
0.0959406
0.131728
0.112347
0.423363
0.208106
0.18851
0.256417
0.465388
0.467262
0.386142
0.478795
0.266755
0.25669
0.121454
0.130554
0.124107
0.172817
0.069607
0.0930021
0.0559474
0.055819
0.0527077
0.0714446
0.0603371
0.048288
0.0667319
0.0656295
0.0616211
0.0606355
0.0595081
0.0585382
0.0766331
0.0818237
0.0496736
0.0599528
0.0783271
0.0826424
0.0557398
0.0668428
0.0495594
0.0512675
0.207018
0.215769
0.514251
0.416174
0.0730894
0.0676241
0.079673
0.0735145
0.0956759
0.0870883
0.108734
0.0980746
0.114524
0.125864
0.14105
0.155657
0.170821
0.188749
0.0813474
0.0733428
0.086791
0.0970983
0.0787334
0.083383
0.0612316
0.0633102
0.0635851
0.0689689
0.0820378
0.0713654
0.081059
0.0755131
0.0699552
0.0791958
0.0504688
0.0508881
0.0511126
0.0517884
0.0860677
0.0865737
0.0563964
0.0578536
0.631299
0.639147
0.486066
0.477798
0.125679
0.124658
0.117045
0.112693
0.153902
0.152078
0.216822
0.218324
0.214928
0.248859
0.182373
0.187843
0.208118
0.20492
0.742571
0.753624
0.955588
0.961669
0.302433
0.298472
0.367327
0.346206
0.281513
0.317835
0.22178
0.313264
0.188918
0.174774
0.126883
0.141926
0.196671
0.172216
0.427468
0.352156
0.191131
0.198386
0.85618
0.862355
0.181104
0.206143
0.14501
0.144411
0.986833
0.983778
0.833829
0.906454
1.08965
1.08015
0.143025
0.175352
0.11431
0.116388
0.0572898
0.0586186
0.0633216
0.0624308
0.0784587
0.0861067
0.0745761
0.0776511
0.0853133
0.081255
0.487168
0.643313
0.133862
0.123324
0.173163
0.201292
0.230337
0.266925
0.367235
0.085958
0.117403
0.176634
0.172052
0.0552409
0.0659571
0.0668637
0.0668217
0.0885072
0.0916561
0.062644
0.0644452
0.0854816
0.0899972
0.0664982
0.0697349
0.107147
0.110848
0.286524
0.339013
0.269682
0.429063
0.157556
0.146615
0.23876
0.25132
0.227299
0.11799
0.10809
0.200105
0.232271
0.532157
0.388332
0.099693
0.0936428
0.135011
0.193456
0.0579056
0.0691825
0.0998909
0.133775
0.0608646
0.0580753
0.0609578
0.067567
0.0790554
0.0830533
0.0879544
0.0672008
0.0681028
0.0576592
0.0568918
0.0501659
0.0607578
0.0778795
0.0722361
0.0582553
0.0687851
0.0778767
0.0823628
0.0603736
0.0576905
0.150563
0.158078
0.202285
0.192326
0.344931
0.403942
0.223893
0.248095
0.0923971
0.0830915
0.0712444
0.0664427
0.0820699
0.0752671
0.0844762
0.0924298
0.114297
0.102953
0.133221
0.146805
0.159746
0.176499
0.0852761
0.0761572
0.069939
0.074811
0.06151
0.0631075
0.0592769
0.0609054
0.0688075
0.0777427
0.0671902
0.062161
0.0840335
0.0828853
0.0523288
0.053763
0.0503231
0.0630135
0.0612833
0.0871041
0.0867666
0.0588082
0.0571931
0.0637022
0.0620559
0.074731
0.0760571
0.901904
0.851234
0.883993
0.88519
0.104812
0.106911
0.125952
0.127654
0.136722
0.135114
0.12186
0.120766
0.152602
0.154426
0.219263
0.2505
0.157677
0.163325
0.170482
0.168023
0.136214
0.13425
0.153816
0.151622
0.202892
0.205976
0.492823
0.484381
0.631819
0.616596
0.774516
0.784482
1.04317
1.04304
0.743687
0.766867
0.305008
0.308637
1.0336
1.03034
1.01894
0.189943
0.223252
0.145112
0.129406
0.159195
0.0715532
0.0720285
0.211763
0.225535
0.200517
0.18409
0.102571
0.0935412
0.132296
0.118926
0.297455
0.317475
0.296961
0.291134
0.0899344
0.091247
0.292002
0.299136
0.202782
0.210551
0.264713
0.282864
0.628344
0.718026
0.0775413
0.076544
0.0934636
0.0921382
0.119632
0.119082
0.143965
0.143657
0.366625
0.367008
0.652802
0.449457
0.578455
0.449885
0.442227
0.134356
0.144536
0.15997
0.19962
0.0749524
0.0773153
0.081876
0.0615978
0.0567333
0.0620915
0.059517
0.0575491
0.0870741
0.0811973
0.0809916
0.0681897
0.0984381
0.10406
0.270439
0.343914
0.111794
0.104896
0.232255
0.196087
0.258245
0.337276
0.118232
0.08563
0.209735
0.301088
0.0851722
0.0856565
0.0544271
0.0545823
0.0870491
0.090806
0.0662029
0.0679199
0.11694
0.0916604
0.0899988
0.0839996
0.0782308
0.0812977
0.286035
0.23382
0.292666
0.471312
0.585646
0.490571
0.141893
0.132362
0.177492
0.166251
0.325885
0.40082
0.160093
0.171039
0.297029
0.239178
0.281412
0.280899
0.0688939
0.0891797
0.134179
0.194727
0.067558
0.0509618
0.079845
0.0728158
0.0598288
0.0630573
0.0649625
0.0768022
0.0772152
0.0810722
0.0735796
0.0567897
0.0488979
0.0787019
0.0829318
0.0502381
0.0496443
0.199054
0.19101
0.226014
0.23828
0.363412
0.308616
0.217054
0.20036
0.255487
0.0753424
0.0691379
0.0645367
0.0676787
0.0994477
0.0901846
0.108477
0.120492
0.1537
0.137083
0.0777281
0.0826615
0.0622966
0.0627462
0.0644553
0.0619393
0.0612388
0.0603376
0.0617278
0.0591603
0.0685612
0.0634454
0.0720058
0.0804279
0.080658
0.0832122
0.0789907
0.0694815
0.0504209
0.0509888
0.0600263
0.0876552
0.0872625
0.0662223
0.0646565
0.0707954
0.0692718
0.352371
0.436092
0.90626
0.855482
0.453644
0.338411
0.470658
0.338188
0.090608
0.0895504
0.128841
0.127301
0.135397
0.133949
0.121056
0.122251
0.150281
0.151115
0.298067
0.252986
0.223564
0.255378
0.152342
0.157669
0.178508
0.181837
0.242742
0.279179
0.142463
0.144709
0.138465
0.136372
0.1349
0.13316
0.170025
0.172671
0.167691
0.165103
0.201826
0.198822
0.177485
0.184064
0.569686
0.519705
0.859103
0.851269
1.02488
1.02559
0.610679
0.59417
0.361509
0.367982
0.306436
0.300348
0.400316
0.38587
0.340402
0.330631
0.0847867
0.0870688
0.073205
0.23822
0.265107
0.243751
0.286074
0.314315
0.298799
0.112412
0.114141
0.0820417
0.0775889
0.210133
0.193792
0.170253
0.158209
0.136978
0.154365
0.441767
0.427803
0.331929
0.406233
0.0595087
0.0579528
0.0906833
0.0925835
0.774049
0.785197
0.206971
0.221257
0.214874
0.206917
0.224002
0.239553
0.553389
0.497003
0.382019
0.427842
0.0648657
0.0634126
0.0958487
0.0893684
0.0936381
0.088502
0.0683657
0.0673773
0.0969879
0.0981229
0.160601
0.161135
0.26101
0.260461
0.966412
0.948075
0.30451
0.304098
0.571088
0.491982
0.110964
0.106916
0.0845154
0.0821838
0.0570892
0.0603508
0.065786
0.0645183
0.0805001
0.0867891
0.111385
0.118749
0.0693257
0.0615574
0.371381
0.301067
0.353482
0.296349
0.234484
0.135963
0.12632
0.177048
0.160323
0.385136
0.294226
0.234993
0.28568
0.206296
0.309341
0.169762
0.0837041
0.0839532
0.0554423
0.0668467
0.059625
0.0576033
0.0711871
0.079805
0.0743418
0.0727333
0.116322
0.152302
0.176505
0.14589
0.159909
0.203327
0.220662
0.243251
0.20286
0.256369
0.236149
0.271463
0.122704
0.108121
0.114322
0.126944
0.118062
0.159064
0.148162
0.266025
0.313346
0.207166
0.251975
0.331271
0.0575251
0.0674829
0.091672
0.0695403
0.0779047
0.0795771
0.0701914
0.0783508
0.0647029
0.0595099
0.105946
0.11315
0.0673724
0.0704429
0.0529348
0.0641854
0.074816
0.0813207
0.0678829
0.0570305
0.169783
0.162923
0.21001
0.197024
0.219422
0.208392
0.487242
0.635568
0.194396
0.181954
0.262609
0.29522
0.079989
0.0883629
0.0697562
0.0655545
0.13511
0.121446
0.0852599
0.0814497
0.0682248
0.0647746
0.0606857
0.0622297
0.0625854
0.067084
0.0743024
0.0801709
0.0698819
0.0647376
0.0798948
0.0709726
0.0834809
0.0814509
0.0703064
0.0793815
0.0498739
0.0514482
0.0848949
0.0792276
0.0882253
0.0877328
0.060419
0.067749
0.429276
0.347374
0.449279
0.338844
0.338127
0.338075
0.346609
0.350186
0.129588
0.119374
0.0903844
0.0931572
0.125767
0.124257
0.129364
0.131088
0.133523
0.132827
0.116567
0.115523
0.14269
0.141186
0.186533
0.187769
0.251514
0.296605
0.120748
0.122575
0.163527
0.165246
0.169762
0.17184
0.151517
0.300108
0.294219
0.288618
0.283519
0.212368
0.140084
0.142119
0.145329
0.143045
0.132329
0.130731
0.185494
0.188785
0.19142
0.194157
0.153156
0.150822
0.160187
0.157816
0.195938
0.193025
0.358179
0.352456
0.165424
0.16132
0.568764
0.581358
0.692821
0.706394
0.843162
0.76424
1.02362
1.02412
1.00925
1.01106
0.872918
0.881164
0.32819
0.334309
0.198782
0.193466
0.312384
0.293101
0.40365
0.418685
0.354433
0.375829
0.43388
0.415707
1.02271
1.04431
0.124226
0.103751
0.248109
0.213715
0.186149
0.179016
0.28745
0.293476
0.239449
0.199265
0.256642
0.0665633
0.0741791
0.0519288
0.0508176
0.238706
0.25012
0.221597
0.167106
0.181781
0.174531
0.193557
0.426567
0.3117
0.268873
0.318202
0.348131
0.477
0.472733
0.150606
0.128311
0.0892938
0.087907
0.292732
0.269141
0.439575
0.45771
0.322606
0.324422
0.353109
0.29977
0.219297
0.211163
0.542638
0.482796
0.438022
0.391712
0.0803619
0.078744
0.0636792
0.0623816
0.088658
0.0951656
0.912975
0.909503
0.851886
0.903309
0.236531
0.273866
0.099464
0.101036
0.130278
0.129964
0.262907
0.264296
0.231821
0.230813
0.980649
0.974705
0.358994
0.362595
0.0897204
0.0849198
0.13373
0.165331
0.0579505
0.0568013
0.0625563
0.064093
0.0581857
0.0588667
0.0798271
0.0865442
0.125617
0.100104
0.0719538
0.0628504
0.212654
0.190119
0.212305
0.150343
0.170921
0.155794
0.119112
0.155952
0.142369
0.212206
0.199994
0.16816
0.166478
0.0643283
0.064923
0.0742268
0.0821291
0.0785511
0.0695803
0.0629782
0.064432
0.059533
0.062927
0.135027
0.125206
0.18683
0.200281
0.171912
0.166977
0.153969
0.168816
0.175628
0.204793
0.174674
0.186083
0.300003
0.398792
0.468494
0.385103
0.451645
0.113819
0.0951
0.103263
0.153187
0.136847
0.196415
0.185644
0.206753
0.270206
0.236146
0.356726
0.272108
0.21978
0.266042
0.0576503
0.0680381
0.0789058
0.0795654
0.07781
0.0804978
0.0770322
0.0663902
0.050181
0.0690835
0.0777291
0.0579176
0.0629387
0.0924227
0.0990822
0.0576238
0.057425
0.0625559
0.0515011
0.156544
0.150136
0.184001
0.199449
0.186462
0.177541
0.284289
0.249514
0.419382
0.398692
0.496657
0.642503
0.303181
0.366556
0.337953
0.238424
0.0774037
0.084941
0.0806439
0.0847108
0.0637481
0.0669486
0.0618183
0.0628175
0.0602358
0.0603882
0.0619079
0.0655992
0.0729991
0.0792016
0.0843605
0.0835264
0.0837559
0.0821931
0.0496535
0.0523671
0.0840502
0.077968
0.121153
0.119154
0.244148
0.28949
0.269752
0.274935
0.73451
0.753896
0.779561
0.76492
0.56076
0.539631
0.113821
0.118144
0.0967823
0.0980017
0.0906595
0.0905125
0.101714
0.100684
0.128381
0.127029
0.129064
0.127888
0.131949
0.130389
0.132525
0.111381
0.110329
0.117645
0.138137
0.13994
0.147316
0.149205
0.951723
0.955658
0.143633
0.141344
0.129908
0.124938
0.853832
0.891924
0.149101
0.136438
0.117208
0.115495
0.129351
0.126494
0.167646
0.169601
0.176346
0.178821
0.203405
0.207704
0.244698
0.210946
0.165387
0.152578
0.142808
0.145139
0.132522
0.134346
0.178603
0.181238
0.190393
0.184749
0.153476
0.155798
0.170241
0.162575
0.196983
0.199898
0.205202
0.202016
0.222153
0.22653
0.228938
0.224515
0.167258
0.17198
0.173313
0.280724
0.287112
0.520519
0.505342
0.796884
0.783271
0.925292
0.927947
1.0181
1.01604
1.02115
1.0198
1.04349
1.04358
0.952085
1.00826
0.753502
0.739596
0.791822
0.812067
0.240473
0.236623
0.28238
0.266991
0.361019
0.374826
0.249084
0.255307
0.371298
0.393302
0.394653
0.409378
0.502072
0.482774
0.52326
0.518081
1.03563
1.03181
0.261865
0.298942
0.205533
0.192121
0.178681
0.210731
0.187763
0.252548
0.229191
0.269149
0.330261
0.165001
0.097382
0.0928268
0.0527854
0.0564899
0.052686
0.0495261
0.073718
0.0600552
0.203206
0.220018
0.100613
0.0894504
0.161324
0.146413
0.202501
0.191717
0.166772
0.261527
0.232881
0.258286
0.404779
0.246632
0.215036
0.249565
0.805229
0.650436
0.0570583
0.0558915
0.116539
0.114735
0.206309
0.209714
0.390109
0.381669
0.429325
0.447724
0.337962
0.331099
0.624416
0.83831
0.30583
0.36028
0.219548
0.234785
0.248296
0.265444
0.449323
0.38004
0.746851
0.758665
0.422781
0.47032
0.608809
0.6221
0.0700482
0.0683027
0.0611321
0.0599769
0.0730662
0.0736471
0.0928921
0.0939443
0.908586
0.885003
0.881297
0.270736
0.234469
0.0691061
0.0700319
0.123442
0.12221
0.118658
0.118347
0.202409
0.202702
0.990222
0.990262
0.197529
0.19422
0.302465
0.302318
0.582674
0.594403
0.734296
0.966791
0.0741959
0.070722
0.123788
0.155278
0.0566722
0.0589503
0.0673193
0.069845
0.0589915
0.0584351
0.0776028
0.0857245
0.0948952
0.0899032
0.544228
0.711124
0.255561
0.145
0.119532
0.0860081
0.0809934
0.0727394
0.0674645
0.078155
0.0725304
0.18667
0.166419
0.306846
0.377017
0.397714
0.145796
0.127192
0.147308
0.21996
0.362285
0.406288
0.544083
0.577043
0.689401
0.121147
0.100427
0.165947
0.181368
0.192126
0.172335
0.223157
0.179019
0.169249
0.328534
0.199228
0.0661667
0.0559061
0.0623366
0.116781
0.157405
0.0784054
0.0785151
0.061235
0.0452439
0.0808083
0.0765775
0.0522159
0.0684276
0.0574499
0.0605243
0.0713844
0.0790455
0.0787603
0.0749597
0.161221
0.152506
0.131817
0.126443
0.144429
0.156806
0.169925
0.214226
0.228962
0.273044
0.302877
0.842666
0.743222
0.334504
0.187112
0.205882
0.278862
0.0660454
0.0711679
0.0796973
0.0840681
0.0629135
0.0628674
0.0604117
0.0597094
0.0847338
0.0841197
0.0536192
0.060676
0.185335
0.187505
0.107204
0.103807
0.135642
0.133689
0.136668
0.134993
0.167499
0.169931
0.884507
0.788997
0.667189
0.691373
0.464237
0.458664
0.751288
0.257685
0.253228
0.114575
0.110582
0.122812
0.124825
0.162727
0.159942
0.0931316
0.0920164
0.0940208
0.0912485
0.11852
0.114877
0.124233
0.122695
0.12568
0.130153
0.126757
0.131124
0.129745
0.106954
0.105876
0.128128
0.122988
0.142662
0.14117
0.148511
0.146765
0.471354
0.474945
0.146966
0.149148
0.164886
0.166962
0.137797
0.247509
0.292683
0.19325
0.196948
0.118955
0.119675
0.123814
0.131153
0.16153
0.163128
0.13436
0.140342
0.166144
0.164145
0.174115
0.176449
0.172337
0.323384
0.317606
0.254137
0.259793
0.155047
0.157503
0.159108
0.155767
0.140613
0.147663
0.151841
0.15017
0.183177
0.186217
0.180567
0.163203
0.165754
0.149068
0.146971
0.156065
0.195915
0.193091
0.189157
0.186245
0.19893
0.293099
0.343326
0.259741
0.254909
0.189183
0.206024
0.180679
0.176813
0.418414
0.425896
0.951717
1.03343
0.797858
0.86626
0.850071
0.708055
0.692988
0.719066
0.73115
0.834744
0.825938
1.01406
0.934781
1.0439
1.0441
1.00694
1.00556
1.04336
1.02459
0.849536
0.856577
0.813319
0.801619
0.625726
0.643016
0.214411
0.218353
0.1855
0.189417
0.322319
0.306047
0.324478
0.314432
0.245738
0.23994
0.300435
0.320154
0.302608
0.284833
0.577535
0.569079
0.41285
0.428247
0.331958
0.322011
0.458588
0.433013
0.781687
0.772809
1.02161
0.984349
1.00357
0.0831802
0.0819968
0.0664562
0.0679431
0.1428
0.127261
0.132609
0.167402
0.322753
0.39254
0.169608
0.323041
0.311281
0.310405
0.10911
0.110989
0.0718946
0.0641896
0.0518272
0.0526459
0.0706391
0.0796489
0.0497929
0.0508252
0.08418
0.0653636
0.255435
0.338773
0.131483
0.119823
0.0966847
0.0870016
0.22161
0.198758
0.179671
0.151057
0.1708
0.145362
0.177402
0.188248
0.261149
0.218761
0.280127
0.0613896
0.0563983
0.0665195
0.263079
0.212692
0.177141
0.087385
0.0886469
0.102565
0.0998614
0.105382
0.104349
0.315844
0.374065
0.385921
0.37744
0.347253
0.339417
0.432659
0.451448
0.382461
0.391467
0.329198
0.33598
0.168979
0.170849
0.311962
0.367546
0.24266
0.275314
0.215247
0.230166
0.217751
0.223583
0.259101
0.2769
0.431037
0.456177
0.735977
0.741487
1.03254
1.0318
0.598012
0.699778
0.618032
0.715563
0.776312
0.79067
0.711509
0.732713
0.0736149
0.0718498
0.0597984
0.0607814
0.0727105
0.0719667
0.0898532
0.0888461
0.108179
0.100061
0.145096
0.163413
0.204873
0.1804
0.0998799
0.100902
0.141147
0.145964
0.108781
0.108537
0.130731
0.131312
0.229773
0.230502
0.98997
0.988431
0.241237
0.244826
0.207768
0.206299
0.303352
0.302852
0.601468
0.608189
0.0903984
0.0881576
0.0844497
0.0710132
0.0795754
0.114491
0.106576
0.0565956
0.0599978
0.0670641
0.418053
0.0865498
0.090653
0.0781964
0.0847863
0.0801379
0.0992312
0.126889
0.0859505
0.0916353
0.180911
0.245381
0.371077
0.18358
0.314162
0.670014
0.864289
0.248268
0.297458
0.55994
0.0917835
0.0872251
0.210507
0.23362
0.197478
0.179077
0.221198
0.241658
0.338573
0.275953
0.279245
0.0665947
0.0565092
0.110568
0.146983
0.0789926
0.078252
0.0459
0.0615674
0.0566183
0.0721074
0.0800893
0.0774956
0.0616998
0.0578894
0.163741
0.171862
0.121664
0.132723
0.176445
0.183831
0.226726
0.248143
0.560327
0.435115
0.171002
0.0724188
0.0673482
0.0766516
0.0818855
0.0627831
0.0656593
0.0795352
0.0703177
0.158793
0.160543
0.0914795
0.0879373
0.111066
0.11064
0.121531
0.121084
0.293397
0.342614
0.0956865
0.0946986
0.284642
0.285169
0.0986548
0.0977252
0.207713
0.208648
0.442111
0.340231
0.714253
0.703038
0.881556
0.713659
0.738311
0.726082
0.301532
0.295735
0.112851
0.109017
0.116339
0.112183
0.178437
0.175061
0.102965
0.101647
0.0971893
0.0959934
0.0897401
0.0888085
0.111378
0.111923
0.0964955
0.100535
0.124202
0.121698
0.120862
0.122562
0.131425
0.13273
0.112459
0.108052
0.135436
0.134067
0.145784
0.147376
0.146208
0.144591
0.822518
0.832021
0.397513
0.40095
0.156384
0.158468
0.131727
0.12673
0.125017
0.119943
0.293909
0.248771
0.353189
0.362172
0.194596
0.222381
0.117999
0.117396
0.126885
0.119992
0.127311
0.133047
0.130938
0.12812
0.143512
0.137427
0.161405
0.155865
0.162183
0.165565
0.167228
0.161354
0.171921
0.174122
0.155691
0.152945
0.276093
0.281354
0.22056
0.226015
0.26517
0.232064
0.136207
0.138117
0.147621
0.150255
0.142304
0.140363
0.145573
0.143911
0.180874
0.1837
0.178088
0.180865
0.146406
0.144317
0.180682
0.177986
0.190186
0.187409
0.183424
0.191816
0.241433
0.245911
0.275743
0.278346
0.233424
0.264459
0.198205
0.214641
0.168582
0.164213
0.293144
0.299754
0.416999
0.427513
0.723197
0.709891
0.484115
0.469722
0.58529
0.534725
0.739358
0.723498
1.04442
1.04387
0.816755
0.806819
0.929911
0.924907
0.939583
0.944326
0.857747
0.872076
0.947672
0.943174
0.710865
0.695753
0.700716
0.685335
0.676173
0.70254
0.648812
0.675821
0.176892
0.177403
0.206319
0.202579
0.194537
0.190456
0.289005
0.273216
0.312095
0.315068
0.261726
0.255472
0.307807
0.327824
0.264444
0.257982
0.317612
0.310027
0.270787
0.261759
0.384489
0.362809
0.38138
0.363336
0.445544
0.470656
0.525352
0.511454
0.819169
0.902295
0.792803
0.732057
0.98294
0.081053
0.0885462
0.51464
0.577533
0.0624917
0.0601435
0.356233
0.421434
0.0927787
0.108893
0.159327
0.147322
0.15338
0.165784
0.165982
0.144502
0.249731
0.217147
0.30336
0.313363
0.188392
0.180853
0.0602231
0.0631964
0.0741949
0.0655519
0.0549209
0.0563806
0.0828146
0.0823685
0.0798846
0.0797961
0.0536027
0.0496571
0.0586031
0.0617142
0.136323
0.194455
0.0640574
0.0874448
0.261148
0.335444
0.10652
0.111445
0.103015
0.0847077
0.175782
0.158588
0.150551
0.128614
0.122523
0.130988
0.145473
0.162847
0.330802
0.330017
0.409358
0.45039
0.518684
0.277329
0.347664
0.0721916
0.0763128
0.256591
0.259754
0.168291
0.174767
0.0613825
0.058379
0.0860997
0.0845932
0.0949238
0.0967334
0.557687
0.578595
0.080727
0.0769925
0.310108
0.304677
0.221967
0.21744
0.304814
0.298685
0.587525
0.599134
0.661256
0.648824
0.43042
0.420071
0.400724
0.410242
0.254144
0.249215
0.443692
0.371
0.207901
0.239144
0.178677
0.180522
0.533753
0.50763
0.436697
0.42747
0.202328
0.1949
0.211037
0.22564
0.273743
0.310219
0.219071
0.21331
0.253606
0.271083
0.309437
0.330058
0.509115
0.449283
0.853673
0.851442
0.315975
0.331957
0.586995
0.689811
0.608609
0.708542
0.554222
0.457182
0.469647
0.702913
0.724105
0.0664139
0.0679783
0.084738
0.0818499
0.0774364
0.0765336
0.106051
0.104853
0.0945406
0.0955539
0.0932582
0.0875596
0.0934641
0.0879848
0.117813
0.130155
0.209591
0.183155
0.783504
0.941772
0.315926
0.395502
0.103287
0.104227
0.154419
0.159319
0.0881746
0.087806
0.147907
0.149305
0.121179
0.120324
0.179478
0.179439
0.377697
0.381924
0.368939
0.370338
0.611592
0.616447
0.21389
0.21671
0.234548
0.233053
0.366303
0.365817
1.04469
0.962796
0.578969
0.0957043
0.102284
0.0764672
0.0741444
0.0560776
0.0550143
0.0875071
0.0869288
0.0842635
0.196481
0.165845
0.159181
0.121674
0.10295
0.235875
0.979006
0.88615
0.519603
0.453814
0.432187
0.513456
0.130193
0.138047
0.157154
0.146606
0.309952
0.187511
0.0660112
0.0566933
0.0786467
0.0744622
0.0863949
0.0837177
0.0483894
0.0643974
0.0779138
0.078725
0.0703621
0.0543857
0.166534
0.176081
0.137976
0.143893
0.276297
0.325118
0.0736158
0.0686346
0.145677
0.14395
0.0643452
0.0643527
0.0877072
0.0868756
0.0876059
0.0865709
0.119602
0.117436
0.136286
0.131983
0.951059
0.872132
0.657352
0.666462
0.111366
0.11284
0.0937164
0.141409
0.147555
0.243184
0.288596
0.210144
0.21136
0.127607
0.127143
0.205689
0.180968
0.242648
0.288719
0.439291
0.341138
0.445438
0.339452
0.877686
0.872044
0.256011
0.260954
0.169191
0.166769
0.111167
0.107486
0.120846
0.159483
0.162524
0.154287
0.157134
0.110703
0.109227
0.100552
0.0994852
0.0957458
0.0928163
0.0895103
0.0885154
0.105591
0.106484
0.110033
0.109095
0.123679
0.122708
0.124329
0.122974
0.119498
0.115168
0.110322
0.109175
0.125337
0.124147
0.135497
0.134148
0.138365
0.136869
0.143594
0.145446
0.138277
0.136872
0.147853
0.785523
0.777882
0.646701
0.647958
0.478422
0.481968
0.158674
0.172154
0.168864
0.133693
0.128601
0.126581
0.121556
0.164462
0.186155
0.321203
0.280252
0.432519
0.346177
0.280219
0.244897
0.175456
0.178882
0.13882
0.151836
0.12579
0.133361
0.121881
0.128995
0.157644
0.159
0.132556
0.129776
0.141908
0.135875
0.159519
0.154085
0.167402
0.155005
0.153248
0.170244
0.16818
0.159685
0.162476
0.240794
0.245498
0.18351
0.187161
0.162428
0.167391
0.236001
0.26996
0.187687
0.185094
0.140303
0.138222
0.138491
0.13667
0.153511
0.14728
0.16921
0.166115
0.162476
0.172798
0.175407
0.158103
0.155582
0.151236
0.148573
0.175294
0.172507
0.194769
0.197819
0.348349
0.297222
0.242282
0.243446
0.346585
0.340783
0.203886
0.217766
0.220518
0.185107
0.201935
0.185357
0.268649
0.273678
0.221464
0.216863
0.336217
0.329079
0.28184
0.279997
0.494939
0.506069
0.52955
0.521706
0.518045
0.440448
0.427481
0.482744
0.468943
0.601665
0.550467
0.810331
0.823424
0.795729
0.781452
0.919946
0.914648
1.01229
1.01072
0.900124
0.893785
0.96767
0.906564
0.559726
0.543595
0.653913
0.637643
0.789725
0.864616
0.845137
0.861551
0.705349
0.730489
0.657296
0.684242
0.287344
0.250777
0.226866
0.231028
0.161622
0.158292
0.299054
0.315087
0.284335
0.293807
0.312614
0.216001
0.221027
0.315186
0.335431
0.237256
0.243063
0.291992
0.299332
0.32196
0.315957
0.366253
0.347109
0.409325
0.436618
0.494676
0.514026
0.546189
0.522953
0.7513
0.760487
0.707765
0.626176
0.775781
0.714332
0.813702
0.803864
0.066304
0.0610091
0.0636013
0.373195
0.450121
0.0730182
0.0772661
0.067447
0.0795583
0.137116
0.110593
0.153329
0.135215
0.333888
0.349059
0.313318
0.362258
0.285992
0.120441
0.118138
0.11759
0.0967417
0.0949075
0.0836978
0.087866
0.0814925
0.087684
0.0969852
0.0918758
0.0613483
0.0596161
0.0545068
0.0534007
0.0705261
0.0723633
0.0726409
0.073352
0.0832416
0.0800335
0.0803024
0.0794758
0.0774081
0.0562112
0.0563651
0.0569636
0.0833752
0.102696
0.0954341
0.10676
0.104638
0.0852294
0.0651467
0.144173
0.152586
0.597513
0.435582
0.139286
0.152108
0.0984688
0.0946363
0.0908594
0.112445
0.106952
0.200866
0.228656
0.108436
0.115774
0.198295
0.212458
0.318348
0.502925
0.994702
0.875906
0.327679
0.0817152
0.0619255
0.136724
0.175756
0.343798
0.344423
0.149997
0.128645
0.141652
0.0813562
0.085129
0.0719914
0.0672301
0.0875743
0.212935
0.216312
0.824341
0.815925
0.0786481
0.0827681
0.113763
0.112086
0.171891
0.186527
0.213051
0.219026
0.287748
0.294258
0.274776
0.280586
0.431176
0.42235
0.66934
0.68112
0.450789
0.470078
0.477168
0.467333
0.439026
0.429333
0.278186
0.285082
0.264552
0.270015
0.256023
0.260569
0.572872
0.611384
0.827804
0.26421
0.229232
0.177309
0.203049
0.217014
0.944045
0.934599
0.44597
0.206371
0.198777
0.222331
0.228244
0.243666
0.234505
0.3872
0.457606
0.364384
0.387469
0.452542
0.444368
0.629846
0.620873
1.03404
0.967099
0.957358
0.966925
0.28681
0.271711
0.519811
0.508755
0.542053
0.530967
0.558793
0.58359
0.64709
0.633886
0.0678966
0.0693616
0.0770694
0.0753723
0.305799
0.377048
0.0810555
0.0840055
0.0749194
0.0741925
0.0756454
0.0747834
0.107666
0.108808
0.0908453
0.0918385
0.093205
0.0874126
0.0933384
0.0877483
0.129682
0.117783
0.162472
0.144512
0.248976
0.290051
0.817069
0.923309
0.727041
0.968112
0.683924
0.982623
0.079115
0.077559
0.0659014
0.066606
0.0755482
0.0759276
0.0967742
0.0950072
0.0941279
0.0946243
0.163911
0.165275
0.132059
0.132974
0.18148
0.180682
0.229009
0.229276
0.308048
0.310164
0.302309
0.302604
0.620717
0.626805
0.205808
0.201368
0.191412
0.189007
0.261776
0.262789
0.893306
0.855415
0.696499
0.901447
0.229656
0.208587
0.0831774
0.0804512
0.133365
0.124594
0.0532514
0.0531834
0.0513494
0.0499922
0.0508072
0.0611988
0.0617012
0.187861
0.223577
0.126302
0.114642
0.113454
0.0965054
0.805261
0.778566
0.631375
0.823124
0.34654
0.40038
0.651218
0.222182
0.237159
0.0680917
0.0560378
0.0574161
0.0668338
0.0812825
0.0627148
0.0469709
0.181163
0.192158
0.13227
0.130595
0.066586
0.0670242
0.0837033
0.0828474
0.0908922
0.0897763
0.112002
0.112253
0.119686
0.119347
0.193785
0.196545
0.946793
0.892413
0.728274
0.368262
0.458616
0.915581
0.860929
0.110823
0.112238
0.137247
0.138982
0.103211
0.10172
0.242288
0.287768
0.208974
0.119912
0.121029
0.0943244
0.0935476
0.202559
0.187184
0.178582
0.287359
0.241189
0.682273
0.672734
0.804725
0.882891
0.692414
0.521571
0.343715
0.251079
0.236171
0.231357
0.102337
0.104571
0.118927
0.117053
0.156518
0.145428
0.148085
0.121604
0.123467
0.104259
0.112164
0.0926347
0.0934622
0.094224
0.0983605
0.0915618
0.09224
0.0913899
0.118716
0.119713
0.11218
0.111446
0.108127
0.10576
0.104804
0.125373
0.126536
0.127795
0.133228
0.113564
0.114698
0.129359
0.130622
0.131539
0.130283
0.139887
0.145041
0.143338
0.144223
0.139709