/*--------------------------------*- C++ -*----------------------------------*\
  =========                 |
  \\      /  F ield         | OpenFOAM: The Open Source CFD Toolbox
   \\    /   O peration     | Website:  https://openfoam.org
    \\  /    A nd           | Version:  7
     \\/     M anipulation  |
\*---------------------------------------------------------------------------*/
FoamFile
{
    version     2.0;
    format      ascii;
    class       volScalarField;
    location    "0.12";
    object      p;
}
// * * * * * * * * * * * * * * * * * * * * * * * * * * * * * * * * * * * * * //

dimensions      [0 2 -2 0 0 0 0];

internalField   nonuniform List<scalar> 
238806
(
6.58376e-07
6.54495e-07
-7.09473e-08
8.77457e-08
-2.35995e-11
5.90978e-07
5.99173e-07
6.84839e-07
7.5789e-07
1.38478e-07
1.60613e-07
2.2568e-07
6.66737e-08
6.25656e-08
-1.0392e-07
-1.18966e-07
1.12409e-07
7.19041e-08
2.11915e-06
2.13617e-06
8.51222e-08
7.52273e-08
-1.02557e-07
-7.03152e-08
-4.16314e-08
7.39222e-08
1.64956e-08
6.84553e-08
-2.32783e-08
-1.13234e-07
1.88791e-06
2.0969e-06
4.25624e-08
6.41229e-08
1.26969e-07
1.41681e-07
3.14395e-10
2.79508e-10
1.15266e-07
2.4288e-07
1.87165e-07
-3.30094e-08
2.34565e-06
2.57959e-06
1.90771e-06
1.88863e-06
-5.29978e-08
-3.76916e-08
8.59866e-08
1.07431e-07
2.60598e-07
2.71145e-07
7.38448e-08
6.91662e-08
-1.22742e-10
-1.24979e-10
1.48968e-07
4.24159e-08
1.35572e-07
2.12056e-07
1.55026e-07
3.08887e-07
1.84751e-07
2.51897e-07
2.93179e-07
1.70091e-06
1.70243e-06
8.63545e-07
7.74188e-07
4.30666e-07
3.82626e-07
5.80829e-08
3.91877e-08
1.04431e-07
8.30268e-08
1.96085e-07
1.81807e-07
1.26598e-07
1.41108e-07
7.94647e-10
7.98869e-10
5.94225e-08
8.80225e-08
1.02446e-06
1.08151e-06
3.74518e-07
3.34712e-07
2.21707e-08
-5.65472e-08
6.06278e-08
2.33066e-08
3.09622e-07
1.96992e-07
1.94997e-06
1.8979e-06
2.47703e-07
2.75283e-07
1.4187e-07
1.06431e-07
-1.99917e-08
1.67939e-06
8.72854e-07
8.23045e-07
7.37049e-07
7.3985e-07
3.00806e-08
2.36554e-08
8.99532e-08
7.28369e-08
6.15248e-08
4.04749e-08
1.88318e-07
2.10589e-07
2.41752e-07
2.31776e-07
7.00949e-08
7.76356e-08
2.60167e-10
2.67971e-10
1.66446e-10
-1.34226e-07
-1.28497e-07
8.45901e-07
7.97729e-07
6.59814e-07
6.68376e-07
-1.29236e-07
-1.50563e-07
-5.14039e-09
-2.43492e-09
2.52842e-07
-1.1736e-08
4.12792e-08
-4.60804e-08
1.12577e-07
2.59516e-07
1.79198e-06
2.01114e-06
-2.49047e-07
-7.88847e-08
-1.3083e-07
-8.09377e-08
1.80333e-07
1.24018e-06
9.94418e-07
1.1105e-06
1.05014e-06
7.3327e-07
7.75826e-07
5.1482e-07
4.79782e-07
3.24531e-07
3.04099e-07
1.98648e-08
1.1128e-08
7.03873e-08
5.83698e-08
5.56213e-08
3.86457e-08
7.7375e-08
6.86891e-08
1.76471e-07
1.64977e-07
2.70316e-07
2.59728e-07
1.22798e-07
1.3726e-07
1.04833e-09
1.04048e-09
3.11778e-10
2.78121e-10
5.418e-08
7.8815e-08
-5.25621e-08
-4.11134e-08
-2.26698e-08
9.52895e-07
8.98816e-07
2.92438e-07
2.79297e-07
-1.15211e-07
-1.41035e-07
-7.25122e-08
6.50228e-08
-1.8006e-08
3.53141e-08
9.97325e-07
9.12799e-07
2.17308e-06
2.43319e-06
2.32707e-06
2.56636e-06
9.76676e-07
8.14037e-07
1.38396e-07
-2.01473e-09
1.45031e-07
-4.75777e-08
-6.47576e-08
-4.64076e-11
-7.119e-08
2.0317e-06
2.08321e-06
1.1066e-06
1.04655e-06
9.7485e-07
8.64019e-07
3.2705e-07
2.91788e-07
4.26723e-07
4.59103e-07
-6.13419e-08
-6.79843e-08
3.26625e-09
-4.22392e-09
8.72144e-09
2.19903e-08
1.26925e-08
2.70068e-08
7.74324e-08
9.6775e-08
1.8772e-07
1.70386e-07
2.07261e-07
2.43951e-07
2.3403e-07
2.41918e-07
1.25727e-07
1.40389e-07
2.60524e-09
2.82244e-09
5.91568e-10
6.08575e-10
2.01384e-10
1.79709e-10
2.91413e-10
2.87728e-10
3.5023e-07
4.02182e-07
3.45365e-08
1.01115e-07
-1.31521e-07
-1.418e-07
-5.93156e-09
-5.19594e-09
7.46933e-07
7.03452e-07
3.47751e-07
3.64643e-07
2.89222e-07
2.63302e-07
1.36827e-07
1.48598e-07
1.2255e-09
4.55201e-09
4.76268e-08
1.08571e-07
1.85985e-06
2.20185e-06
2.07958e-06
2.3555e-06
1.88367e-06
2.10014e-06
1.79828e-07
1.81792e-07
8.1278e-07
9.05503e-07
1.85186e-07
2.1192e-07
-1.69759e-08
-3.3306e-08
2.38879e-07
-5.84984e-08
-3.27324e-09
1.75092e-07
1.22888e-07
1.84828e-06
1.78624e-06
1.40636e-06
1.32947e-06
9.31421e-07
9.85364e-07
5.72318e-07
6.11907e-07
5.75888e-07
5.80129e-07
4.44337e-07
4.29624e-07
-1.64967e-08
-1.34681e-08
-4.62175e-08
-5.58123e-08
4.11734e-09
-2.71585e-09
-3.37209e-10
-1.03185e-08
2.18658e-08
5.12906e-09
2.072e-08
-4.07966e-11
5.2124e-08
3.68339e-08
6.70483e-08
6.81121e-08
1.36026e-07
1.17286e-07
1.92748e-07
1.85917e-07
2.18036e-07
1.99192e-07
7.27461e-08
7.46048e-08
1.10096e-07
1.12809e-07
1.03238e-07
9.31876e-08
6.52093e-10
6.1719e-10
1.78641e-09
1.91449e-09
7.77875e-10
7.32187e-10
7.61254e-10
7.59171e-10
1.21136e-10
1.12104e-10
2.9266e-10
2.96368e-10
2.65795e-10
4.98134e-08
7.55486e-08
-1.09253e-07
-1.05587e-07
-1.69191e-10
-1.70308e-10
3.14659e-08
3.41697e-08
-3.67088e-08
-2.85557e-08
6.99731e-07
6.55055e-07
7.32775e-07
7.2901e-07
3.10401e-07
3.25764e-07
2.52353e-07
2.40738e-07
-2.31699e-07
-6.92792e-08
-1.17234e-07
-6.3356e-08
4.30178e-07
5.66004e-07
1.31497e-06
1.98951e-06
1.45506e-06
1.21126e-06
1.14903e-06
2.12267e-06
1.9098e-06
2.20472e-07
2.2314e-07
4.19633e-07
5.27325e-07
5.97245e-07
8.23372e-07
-2.23614e-07
-3.84447e-08
-8.52442e-08
3.00587e-07
3.03093e-07
2.01329e-08
8.1694e-08
1.98226e-07
-2.40964e-08
2.27779e-07
5.8953e-08
7.5692e-07
6.67375e-07
1.82343e-06
1.95093e-06
1.35651e-06
1.34697e-06
1.39349e-06
1.2421e-06
1.22624e-06
1.06346e-06
1.89585e-07
1.81721e-07
2.56073e-07
2.87412e-07
6.5289e-07
6.43004e-07
7.15386e-07
6.87399e-07
4.54888e-07
4.52859e-07
4.08273e-07
3.80839e-07
2.79661e-07
2.51997e-07
-6.35257e-08
-5.68316e-08
3.93507e-08
4.61772e-08
4.44294e-09
-1.71422e-09
1.62122e-09
-7.64429e-09
-7.92572e-09
-2.14069e-08
-2.20114e-08
-3.95796e-08
4.92488e-08
3.55385e-08
7.41749e-08
7.81544e-08
1.23988e-07
1.07645e-07
2.07513e-07
2.15818e-07
1.34991e-07
1.36809e-07
1.02482e-07
1.13815e-07
9.89553e-08
1.0142e-07
1.1438e-07
6.67648e-10
6.35772e-10
2.64645e-09
2.86727e-09
1.44155e-09
1.34848e-09
1.32431e-09
1.41125e-09
5.99934e-10
5.78031e-10
3.64811e-10
3.98961e-10
1.36388e-10
1.22022e-10
2.34437e-10
2.29461e-10
5.92591e-10
6.09513e-10
3.56767e-08
1.79785e-07
3.80944e-08
-3.02573e-08
-2.42966e-08
-2.09711e-07
-1.2712e-07
-1.56839e-07
-1.29793e-07
-1.15792e-10
-1.20952e-10
6.68627e-10
8.74851e-10
-3.76849e-08
-3.48174e-08
-3.36024e-08
-3.56502e-08
-1.22922e-07
-1.40868e-07
6.95205e-07
8.45504e-07
6.34657e-07
6.20552e-07
4.20898e-07
4.28469e-07
3.25085e-07
1.63741e-07
1.32576e-07
1.97534e-07
-6.97215e-09
-1.16834e-07
-2.54544e-08
-7.74794e-08
1.19979e-06
2.11307e-06
1.74354e-06
1.72816e-06
1.6478e-06
1.63319e-06
1.59079e-06
2.29127e-06
2.53463e-06
1.47317e-07
1.4881e-07
2.14656e-07
1.94116e-07
2.71221e-07
2.44492e-07
8.50137e-07
7.50039e-07
1.54096e-07
1.75688e-07
8.81927e-08
1.92463e-08
2.89875e-08
-5.51757e-08
-2.38213e-07
-8.68691e-08
-1.37965e-07
-8.30581e-08
-1.58782e-08
9.24277e-08
5.43425e-07
5.86565e-07
1.19526e-06
1.15319e-06
1.6364e-06
1.57082e-06
1.32233e-06
1.48587e-06
1.77439e-06
1.69069e-06
1.18158e-06
1.24894e-06
2.14598e-07
2.13084e-07
3.63229e-07
3.22942e-07
4.77721e-07
5.43577e-07
5.10747e-07
5.1364e-07
6.47393e-07
5.85841e-07
3.56489e-07
3.5722e-07
3.82629e-07
3.9502e-07
2.73614e-07
2.91016e-07
-4.00709e-08
-4.45543e-08
-1.20718e-07
-9.81479e-08
4.99804e-08
5.95024e-08
2.52612e-08
3.23911e-08
1.1071e-08
1.81698e-08
1.10433e-08
2.07169e-08
2.65459e-09
-5.5873e-09
-4.17938e-09
-1.66101e-08
-1.64769e-08
-3.21235e-08
6.30457e-08
7.65189e-08
4.61195e-08
3.39343e-08
9.85952e-08
1.01215e-07
8.54579e-08
9.28055e-08
1.1266e-07
9.83036e-08
1.42641e-07
1.65834e-07
1.38686e-07
1.34553e-07
2.46466e-07
2.50244e-07
1.61798e-07
1.69918e-07
1.33656e-07
1.25883e-07
1.1403e-07
1.02584e-07
8.43544e-08
7.62113e-08
1.11821e-09
1.1098e-09
6.09486e-10
6.4587e-10
1.81182e-09
1.93513e-09
9.90652e-10
9.85506e-10
7.51746e-10
7.98401e-10
7.69313e-10
7.56652e-10
4.20398e-10
3.7878e-10
2.04784e-10
2.25388e-10
1.33129e-10
1.47219e-10
1.83467e-10
1.88443e-10
3.21256e-10
2.84217e-10
4.16416e-10
3.61157e-10
3.09075e-10
3.05465e-10
-6.37626e-08
-2.79901e-08
3.61092e-07
2.09166e-07
-4.87944e-08
-4.59719e-08
2.85895e-08
6.05093e-09
-2.49968e-08
-6.89353e-10
-1.1002e-07
-1.00249e-07
-9.97674e-11
-1.02259e-10
-2.78761e-11
7.32554e-13
-3.27801e-09
-3.70561e-09
-6.62388e-09
-5.84026e-09
-1.75624e-08
-1.9514e-08
-3.47702e-08
-4.34972e-08
-2.18073e-08
-4.13936e-08
5.73934e-07
4.63662e-07
8.24963e-07
9.49409e-07
9.85204e-07
1.08322e-06
5.76414e-07
6.45985e-07
4.7059e-07
4.80748e-07
3.00607e-07
3.30995e-07
2.32263e-07
2.31252e-07
-1.03713e-07
-1.30136e-07
9.34272e-08
8.54179e-08
3.2544e-08
7.51533e-09
-2.37068e-08
2.46864e-07
1.56797e-07
1.16233e-06
1.0877e-06
1.89063e-06
1.49529e-06
1.46405e-06
1.41211e-06
2.2382e-06
2.48463e-06
1.33555e-07
1.3486e-07
2.52423e-07
2.28497e-07
1.99093e-07
2.01327e-07
6.5646e-07
7.25619e-07
9.46711e-07
1.08658e-06
-1.59064e-08
2.95725e-08
-1.38902e-07
7.44342e-09
9.69515e-08
9.37787e-08
2.06026e-07
-2.24871e-08
3.06179e-07
2.8839e-07
2.42597e-07
6.27026e-08
6.83128e-09
-9.47122e-08
9.67853e-09
6.71563e-07
6.1357e-07
1.69435e-06
1.55264e-06
1.51259e-06
1.52082e-06
1.58062e-06
1.40571e-06
2.5822e-07
1.74831e-07
2.54682e-07
2.62016e-07
2.24393e-07
4.72829e-07
5.29107e-07
5.64088e-07
4.97397e-07
6.23287e-07
7.27869e-07
6.12185e-07
6.35566e-07
4.87973e-07
5.2233e-07
3.03698e-07
3.12228e-07
4.01923e-07
4.03222e-07
3.49264e-07
3.12522e-07
-2.09957e-08
-2.47739e-08
-4.53638e-08
-4.02163e-08
-8.43325e-08
-9.40896e-08
-5.84369e-08
-6.64401e-08
3.19876e-08
4.30341e-08
4.6185e-08
5.467e-08
2.68757e-08
3.48231e-08
1.72098e-08
1.07604e-08
1.01468e-08
2.09795e-08
-1.77514e-09
-1.29454e-08
-1.10082e-08
-2.59989e-08
6.76508e-08
8.29259e-08
8.15785e-08
8.59967e-08
7.04752e-08
6.27687e-08
1.52857e-07
1.39363e-07
1.50409e-07
1.28852e-07
1.58892e-07
1.49224e-07
1.98467e-07
1.97105e-07
2.231e-07
1.66337e-07
1.62292e-07
1.50443e-07
1.74633e-07
9.25049e-08
9.25315e-08
1.11541e-07
1.24091e-07
8.1508e-08
9.04186e-08
2.06466e-08
2.20362e-08
1.11557e-09
1.11452e-09
6.91958e-10
7.07574e-10
1.069e-09
1.08979e-09
2.04513e-09
1.89918e-09
1.39111e-09
1.48813e-09
1.32735e-09
1.41717e-09
6.09261e-10
5.66888e-10
5.72475e-10
5.76545e-10
4.7378e-10
4.59094e-10
4.47394e-10
4.73095e-10
4.10218e-10
4.4041e-10
2.31704e-10
2.44919e-10
1.71552e-10
1.55295e-10
1.71551e-10
1.73015e-10
2.25088e-10
2.24139e-10
1.98389e-10
2.03652e-10
3.18383e-10
2.82008e-10
3.23218e-10
2.87073e-10
4.50126e-10
4.21567e-10
2.65527e-10
1.31661e-10
2.35148e-10
-1.45972e-08
-1.85537e-08
3.98842e-07
2.42452e-07
4.31289e-07
4.36579e-07
3.8594e-07
4.47744e-07
6.58817e-07
-5.47545e-08
-4.85091e-08
2.24149e-08
4.02035e-08
9.47896e-09
2.85202e-08
-6.52435e-08
-9.48718e-08
-2.70522e-08
-4.13295e-08
7.25386e-09
5.92302e-09
-4.79844e-11
-4.41652e-11
-1.07445e-10
-1.10179e-10
-1.33561e-10
-1.36168e-10
-7.23116e-11
4.09853e-12
8.06094e-09
8.69087e-09
1.72793e-10
4.54425e-10
-4.16032e-09
-3.61467e-09
-5.11051e-09
-4.45015e-09
-2.29237e-08
-2.07312e-08
-3.88019e-08
-2.00356e-08
-4.35092e-08
-4.10988e-08
-3.52743e-08
2.98181e-07
3.5299e-07
7.07364e-07
4.98721e-07
8.14661e-07
9.68466e-07
7.33092e-07
6.46166e-07
6.81291e-07
7.155e-07
4.63636e-07
4.91974e-07
3.06351e-07
3.01573e-07
3.75934e-07
4.22214e-07
1.82293e-07
1.88521e-07
-7.224e-08
-7.94936e-08
1.18961e-07
1.13707e-07
5.49354e-09
7.05418e-08
2.28845e-07
1.28343e-07
1.25551e-06
1.34051e-06
1.11787e-06
1.10029e-06
1.3886e-06
1.2207e-06
2.06264e-06
1.84163e-06
1.6273e-07
1.644e-07
2.06577e-07
1.87082e-07
3.163e-07
4.1707e-07
6.64275e-07
5.99561e-07
1.00971e-06
1.11233e-06
1.12286e-07
9.75448e-08
-8.08037e-08
-9.80565e-08
-7.84476e-08
-1.50354e-07
7.11071e-08
6.40899e-08
2.07921e-08
1.31276e-09
-8.07293e-08
-7.12415e-08
2.2536e-07
1.86875e-07
-5.09763e-08
1.25275e-09
1.3954e-06
1.6784e-06
1.28181e-06
1.22935e-06
1.46885e-06
1.29925e-06
1.50101e-06
1.5824e-06
3.13371e-07
3.05925e-07
3.01517e-07
4.13203e-07
4.65373e-07
5.76199e-07
5.09271e-07
7.41068e-07
7.33264e-07
5.58536e-07
5.82726e-07
3.16829e-07
3.17363e-07
3.41311e-07
3.64658e-07
-4.03711e-08
-3.61248e-08
-4.96499e-08
-5.50974e-08
-9.17396e-08
-7.99443e-08
-5.34425e-08
-4.61653e-08
-6.59446e-08
5.40403e-08
6.47673e-08
4.24067e-08
3.63389e-08
1.10082e-08
1.89383e-08
2.18061e-08
9.81768e-09
1.37359e-09
2.05322e-08
1.09245e-07
1.1227e-07
5.88399e-08
5.2682e-08
8.41019e-08
7.76116e-08
1.13075e-07
1.03681e-07
1.53605e-07
1.68895e-07
1.42927e-07
1.34752e-07
1.54642e-07
1.57256e-07
2.78638e-07
2.82076e-07
2.81466e-07
2.77332e-07
1.98269e-07
1.83868e-07
1.82113e-07
8.35614e-08
8.37114e-08
1.18476e-07
1.32782e-07
8.59029e-08
9.5379e-08
1.12e-09
1.11419e-09
1.10725e-09
1.10618e-09
7.29227e-10
7.37795e-10
6.7405e-10
6.81884e-10
1.86307e-09
1.9674e-09
1.96907e-09
2.1219e-09
1.42874e-09
1.52667e-09
1.04923e-09
9.91034e-10
8.48991e-10
8.26624e-10
7.27912e-10
7.42286e-10
5.48611e-10
5.53726e-10
5.7033e-10
5.56647e-10
2.42746e-10
2.31723e-10
4.20903e-10
4.32474e-10
3.30095e-10
3.08132e-10
4.44235e-10
4.73428e-10
3.96416e-10
4.24687e-10
1.71578e-10
1.58339e-10
2.20181e-10
2.26749e-10
1.65803e-10
1.80414e-10
1.45404e-10
1.55448e-10
2.30264e-10
2.3517e-10
2.08195e-10
2.0313e-10
3.16701e-10
2.80848e-10
2.56247e-10
2.52686e-10
3.72074e-10
3.64881e-10
4.22483e-10
4.31106e-10
3.16937e-10
3.14188e-10
2.70232e-10
2.65269e-10
2.65937e-07
2.25607e-07
2.05279e-07
-2.85376e-08
-4.18392e-08
1.74195e-07
6.41407e-08
1.25068e-07
3.38757e-08
3.72217e-09
3.28845e-09
3.37452e-07
3.06302e-07
-5.69912e-08
-5.62188e-08
-4.07366e-08
-3.59344e-08
2.71626e-08
1.77509e-09
-2.40798e-07
-7.21669e-08
-1.19313e-07
-9.06376e-08
7.32744e-09
8.02688e-09
4.57133e-09
4.80834e-09
-3.49251e-10
-3.59123e-10
-1.07155e-10
-1.08408e-10
-1.11765e-10
-1.08776e-10
-1.13525e-10
-1.16967e-10
-1.15014e-10
-4.62214e-11
-2.56861e-11
-3.24727e-11
3.81564e-08
4.17866e-08
9.285e-10
1.1018e-09
1.01106e-09
1.92235e-09
2.88667e-08
3.15697e-08
-1.41705e-09
-1.85519e-09
-6.76917e-09
-7.66644e-09
-2.09183e-08
-1.8941e-08
-2.61373e-08
-2.7654e-08
-3.30264e-08
-2.85378e-08
-3.42967e-08
-1.12612e-07
7.41245e-07
6.45618e-07
1.10188e-06
9.70409e-07
5.56761e-07
5.288e-07
4.57311e-07
5.1315e-07
3.36315e-07
3.4175e-07
2.41718e-07
2.05948e-07
2.14756e-07
2.57586e-07
-1.16661e-07
-7.62738e-08
-6.99162e-08
-6.5731e-08
-5.21285e-08
1.38137e-07
1.15557e-07
1.52628e-08
2.48082e-08
6.70671e-07
3.79459e-07
5.16368e-07
3.71311e-07
8.48564e-07
7.36864e-07
1.31617e-06
1.69931e-06
1.50443e-06
1.25109e-06
1.21413e-06
1.83461e-07
1.6778e-07
1.53569e-07
1.58986e-07
2.37789e-07
2.63252e-07
5.87247e-07
4.85378e-07
3.99996e-07
2.85863e-07
3.83288e-07
1.87601e-07
1.00168e-07
5.02883e-08
7.92305e-08
-4.12944e-09
5.45672e-08
-1.12364e-07
8.32215e-08
1.77429e-07
1.55405e-07
1.15093e-07
8.1196e-08
4.05809e-08
3.80102e-08
-6.01991e-08
-5.8732e-08
1.16883e-07
5.69211e-07
4.75122e-07
1.05966e-06
1.06781e-06
1.3673e-06
1.43909e-06
1.20756e-06
1.20266e-06
3.88028e-07
3.98772e-07
3.02119e-07
2.96705e-07
4.04553e-07
4.63749e-07
5.25571e-07
5.76349e-07
4.83512e-07
5.00726e-07
6.50087e-07
6.55786e-07
3.50685e-07
3.40119e-07
-3.03591e-08
-2.6733e-08
-5.15757e-08
-4.49122e-08
-5.05831e-08
-4.52505e-08
-1.04943e-07
-1.14262e-07
-4.03873e-08
-3.4029e-08
-7.76308e-08
-7.53686e-08
4.02615e-08
3.04677e-08
4.26424e-08
5.0291e-08
6.62436e-09
2.16784e-08
7.55749e-08
7.62001e-08
6.32436e-08
5.8589e-08
9.43401e-08
1.02654e-07
1.02501e-07
8.99734e-08
1.49719e-07
1.54567e-07
1.28699e-07
1.21514e-07
1.76021e-07
1.75392e-07
2.50951e-07
2.48215e-07
2.18462e-07
2.22568e-07
2.20215e-07
2.0354e-07
8.2529e-08
8.04932e-08
7.55489e-08
7.56155e-08
1.00209e-07
1.06065e-07
1.12311e-09
1.1299e-09
7.37602e-10
7.46762e-10
7.24266e-10
7.05395e-10
3.76388e-10
2.96068e-10
9.52038e-10
9.93513e-10
2.41647e-09
2.50422e-09
2.29001e-09
2.20501e-09
1.76716e-09
1.64972e-09
1.59281e-09
1.5416e-09
1.33481e-09
1.42378e-09
9.47735e-10
1.00635e-09
5.33255e-10
5.25276e-10
7.54266e-10
7.39563e-10
6.93289e-10
6.63063e-10
5.5613e-10
5.39854e-10
4.57485e-10
4.42999e-10
4.88227e-10
3.66465e-10
3.81129e-10
3.91977e-10
4.13565e-10
3.67621e-10
3.16857e-10
2.94621e-10
4.57747e-10
4.8475e-10
4.69625e-10
4.57781e-10
2.55706e-10
2.52624e-10
2.30781e-10
2.18069e-10
2.06525e-10
2.20235e-10
2.24409e-10
2.34168e-10
1.7308e-10
1.87611e-10
2.3375e-10
2.46191e-10
1.90639e-10
1.83651e-10
8.60227e-11
9.88184e-11
1.72472e-10
1.64541e-10
1.98779e-10
1.93598e-10
2.50796e-10
2.56796e-10
3.20099e-10
2.83183e-10
2.56067e-10
2.61997e-10
3.70751e-10
3.6377e-10
3.72982e-10
3.64272e-10
3.4285e-10
3.38206e-10
3.05888e-10
3.08838e-10
3.01644e-10
3.05056e-10
2.63765e-10
2.60391e-10
2.188e-10
1.96613e-10
1.57588e-07
1.86486e-07
1.01148e-09
9.66401e-09
1.46322e-07
1.6456e-07
1.61365e-08
-2.18179e-08
1.03413e-07
1.61649e-08
1.48543e-07
6.01374e-08
6.40196e-08
9.69944e-07
1.11561e-06
-7.1522e-08
-5.95906e-08
-8.98642e-08
-3.65734e-08
-4.33389e-08
-1.89902e-08
-3.8275e-08
1.70273e-07
-1.45454e-08
1.03001e-07
-2.5096e-08
-3.61268e-08
-8.59005e-08
-7.97155e-08
-1.82952e-08
-1.29683e-08
5.65235e-09
6.95275e-09
-1.68898e-10
-1.72231e-10
-3.49612e-10
-3.20387e-10
1.86019e-11
2.6634e-11
-8.3733e-11
-8.69045e-11
-1.19201e-10
-1.16342e-10
-9.04898e-11
-7.01194e-11
-3.09983e-11
-2.39352e-11
2.47345e-08
2.70362e-08
2.96991e-08
3.24413e-08
1.11326e-09
1.05142e-09
-1.37915e-09
-1.66395e-09
-2.85985e-09
-3.63479e-09
-4.12569e-09
-4.44966e-09
-2.30957e-09
-2.85134e-09
-4.01459e-09
-3.46709e-09
-8.7893e-09
-7.77345e-09
-1.96784e-08
-1.78036e-08
-2.17437e-08
-2.4121e-08
-3.65451e-08
-3.88522e-08
4.53159e-07
4.19994e-07
5.0586e-07
4.16102e-07
9.89531e-07
1.12724e-06
7.9958e-07
8.92542e-07
4.3761e-07
4.10776e-07
3.76051e-07
3.82169e-07
2.9405e-07
3.28136e-07
2.60955e-07
2.95236e-07
-6.35361e-08
-2.75854e-08
1.3045e-08
4.34337e-08
8.87139e-08
1.52342e-07
1.48926e-07
4.87484e-08
5.39643e-08
3.77528e-07
3.28666e-07
1.1468e-06
9.85876e-07
1.4553e-06
1.67052e-06
1.2644e-07
1.30669e-07
1.75522e-07
1.69352e-07
1.03475e-06
1.14355e-06
5.30347e-07
6.00504e-07
8.046e-07
6.68508e-07
6.68637e-08
6.98202e-08
-1.91031e-08
1.47896e-07
1.00128e-07
2.49019e-07
1.88839e-07
7.864e-08
4.12759e-09
1.12385e-07
1.0777e-07
-5.99511e-08
-8.67113e-08
-8.75206e-08
-9.67653e-08
1.62973e-07
1.94188e-07
9.09515e-08
6.45634e-08
8.52326e-08
7.27358e-09
-5.1828e-08
-7.99955e-09
-3.40011e-08
-2.90202e-08
1.21046e-06
8.55003e-07
9.47737e-07
7.77986e-07
1.19224e-06
1.20389e-06
1.84526e-06
2.11926e-06
1.80278e-06
9.4776e-07
9.49695e-07
1.18736e-06
1.15646e-06
4.38701e-07
4.50265e-07
2.87474e-07
3.20105e-07
3.27866e-07
3.63363e-07
5.08436e-07
4.48903e-07
5.63494e-07
5.43033e-07
-2.45135e-08
-2.131e-08
-3.22381e-08
-3.59433e-08
-3.92909e-08
-3.44908e-08
-7.72299e-08
-6.99311e-08
-9.54851e-08
-1.25254e-07
-1.03651e-07
-1.11052e-07
-1.08713e-07
-7.24507e-08
-8.75457e-08
-5.82919e-08
3.74947e-08
2.86575e-08
8.2029e-08
8.33076e-08
6.44e-08
6.9376e-08
6.45286e-08
5.75991e-08
1.14458e-07
1.25075e-07
9.32205e-08
8.21398e-08
1.66833e-07
1.72529e-07
1.77119e-07
1.76065e-07
2.23418e-07
2.2121e-07
2.44311e-07
2.25921e-07
9.14163e-08
8.91528e-08
2.8993e-09
2.78843e-09
7.86631e-10
7.69048e-10
7.45756e-10
7.34665e-10
7.00689e-10
7.13714e-10
6.08346e-10
6.43229e-10
2.60867e-10
3.49456e-10
8.23939e-10
8.12934e-10
1.41333e-09
1.34166e-09
2.04266e-09
1.81292e-09
1.79144e-09
1.85162e-09
2.02438e-09
2.18161e-09
1.48293e-09
1.58186e-09
1.70619e-09
1.82952e-09
1.63419e-09
1.32703e-09
1.41593e-09
1.25292e-09
1.26401e-09
1.18864e-09
9.32006e-10
8.78372e-10
3.61061e-10
3.4807e-10
5.55099e-10
5.72715e-10
7.2213e-10
7.35628e-10
6.74089e-10
6.65696e-10
7.57224e-10
7.66143e-10
7.56099e-10
7.89159e-10
5.27339e-10
5.3839e-10
4.90318e-10
4.75388e-10
3.68541e-10
3.53919e-10
3.1162e-10
2.98298e-10
4.05423e-10
3.0949e-10
4.95131e-10
4.89001e-10
3.86832e-10
3.55751e-10
4.27623e-10
3.97814e-10
3.37959e-10
3.25419e-10
2.30427e-10
2.51981e-10
2.13664e-10
2.02251e-10
2.04153e-10
2.09119e-10
1.99779e-10
1.87683e-10
1.30647e-10
1.42324e-10
3.19162e-10
3.13206e-10
2.37071e-10
2.48923e-10
1.62208e-10
1.67411e-10
2.05832e-10
7.95312e-11
7.96059e-11
2.57676e-10
2.55813e-10
2.14756e-10
2.1305e-10
2.41066e-10
1.94799e-10
2.16481e-10
2.11482e-10
2.29016e-10
2.23133e-10
2.59718e-10
2.54361e-10
2.73806e-10
2.72067e-10
2.65903e-10
2.60947e-10
3.2308e-10
2.8655e-10
6.01629e-10
6.18203e-10
3.94472e-10
3.97217e-10
3.28067e-10
3.3005e-10
3.03034e-10
2.9899e-10
2.94359e-10
2.97869e-10
3.09892e-10
3.1275e-10
2.81869e-10
2.78269e-10
2.69407e-10
2.70596e-10
2.41051e-10
2.67144e-10
-6.94285e-08
-8.14153e-08
2.67441e-08
3.40055e-08
-3.90134e-08
3.92077e-08
3.7985e-08
2.2123e-08
-1.34885e-08
7.8617e-08
-2.39828e-08
2.78123e-07
-2.77396e-09
-1.82964e-09
1.29639e-07
1.21996e-07
8.47502e-07
8.62818e-07
2.69213e-07
3.06776e-07
-6.54218e-08
-6.45247e-08
4.14807e-08
5.12188e-08
-2.32381e-08
-7.70654e-09
6.26981e-09
6.28135e-08
1.2377e-07
2.31078e-08
-3.49486e-08
-6.68658e-08
-8.70662e-08
-2.32429e-08
-4.96331e-08
-9.97813e-08
-7.16229e-09
-7.06778e-09
4.8045e-09
5.52248e-09
9.68645e-10
-2.74591e-10
-1.66123e-10
-1.6403e-10
-2.49764e-10
-2.43474e-10
-3.63757e-10
-3.32967e-10
2.46098e-11
2.58161e-11
-6.30678e-11
-6.2415e-11
-9.3418e-11
-9.14234e-11
-1.16293e-10
-1.18962e-10
-1.28475e-10
-1.30891e-10
-9.40838e-11
-9.82794e-11
-4.46876e-11
-1.55243e-11
-1.33262e-11
-2.15925e-11
1.29649e-10
1.38646e-10
4.10915e-08
4.48807e-08
3.5052e-08
3.82228e-08
2.32307e-09
2.24139e-09
4.13769e-09
3.88369e-09
5.01041e-10
-5.46789e-09
-3.03549e-09
-5.16827e-09
-4.82209e-09
2.06269e-08
1.89707e-08
-7.07248e-09
-6.19965e-09
-3.07424e-09
-2.61554e-09
-7.54135e-09
-6.6475e-09
-1.1271e-08
-1.26306e-08
-2.48718e-08
-2.23944e-08
-2.19732e-08
-1.99251e-08
-2.83531e-08
-2.61841e-08
-1.22304e-07
-1.35078e-07
4.8576e-07
4.69572e-07
4.67397e-07
3.78077e-07
8.77482e-07
8.73464e-07
9.88045e-07
1.10326e-06
3.90149e-07
3.65578e-07
5.27131e-07
5.34435e-07
2.72537e-07
2.70208e-07
-1.27405e-07
-1.43182e-07
-6.17054e-08
1.30396e-07
1.44112e-06
1.5265e-06
1.44044e-07
1.39302e-07
1.24933e-06
5.38628e-07
4.86091e-07
7.52355e-07
5.47476e-07
7.16614e-09
3.14316e-08
1.08204e-07
2.92879e-07
2.21855e-07
1.87287e-07
4.21202e-08
-1.31283e-08
-3.47195e-08
-1.21432e-07
-1.19068e-07
-1.34253e-07
1.68212e-07
2.17115e-07
6.35441e-08
6.06437e-08
9.12042e-09
3.55385e-08
-3.27619e-08
5.60558e-07
4.51223e-07
3.93401e-07
7.3108e-07
7.44667e-07
7.92664e-07
8.42078e-07
9.78987e-07
8.49145e-07
1.51327e-06
1.51652e-06
1.87622e-06
1.83688e-06
8.37841e-07
8.35589e-07
1.0263e-06
1.05394e-06
3.94089e-07
4.19795e-07
3.41443e-07
3.52501e-07
4.17301e-07
3.72324e-07
-2.37215e-08
-1.96277e-08
-1.13876e-08
-9.25901e-09
-1.86509e-08
-2.35849e-08
-2.81023e-08
-5.13973e-08
-5.81844e-08
-7.13945e-08
-7.57831e-08
-1.26064e-07
-1.23177e-07
-9.64698e-08
-3.92577e-08
-4.97393e-08
-7.40115e-08
1.09992e-07
1.1621e-07
8.96051e-08
9.16773e-08
5.36478e-08
4.81675e-08
1.26233e-07
1.38252e-07
1.58364e-07
1.57534e-07
2.07511e-07
2.15093e-07
2.51368e-10
3.42475e-10
6.19354e-09
5.92013e-09
9.19463e-10
9.41147e-10
2.38565e-09
2.46896e-09
6.32912e-10
6.19502e-10
7.2607e-10
7.28573e-10
6.31319e-10
6.60143e-10
6.97608e-10
7.16205e-10
6.7115e-10
2.53553e-10
1.66768e-10
8.82523e-10
8.98698e-10
8.33367e-10
8.02764e-10
8.34506e-10
8.26466e-10
1.70576e-09
1.79346e-09
2.3101e-09
2.27443e-09
2.44887e-09
2.48282e-09
2.47656e-09
2.67693e-09
2.35745e-09
1.66779e-09
1.691e-09
1.75167e-09
1.8794e-09
1.30678e-09
1.39028e-09
1.24231e-09
1.24521e-09
8.07249e-10
8.55493e-10
9.02141e-10
9.58766e-10
4.20936e-10
4.08391e-10
5.59378e-10
5.42924e-10
6.66296e-10
6.46878e-10
7.08448e-10
7.79401e-10
7.64186e-10
5.6881e-10
5.44025e-10
6.59335e-10
6.62283e-10
7.22421e-10
7.17701e-10
5.92234e-10
5.75993e-10
6.05587e-10
5.94319e-10
4.74303e-10
5.0682e-10
3.96986e-10
3.83052e-10
3.84822e-10
3.07347e-10
3.22036e-10
3.73283e-10
3.54689e-10
4.62107e-10
4.34356e-10
3.37245e-10
3.45071e-10
4.14665e-10
4.28008e-10
3.82184e-10
4.11174e-10
2.87566e-10
2.78894e-10
2.67597e-10
1.77244e-10
1.66313e-10
2.41328e-10
2.55939e-10
2.16972e-10
1.97774e-10
2.07511e-10
1.42693e-10
1.54805e-10
1.56238e-10
4.01447e-10
3.91635e-10
2.46466e-10
2.59061e-10
2.05951e-10
2.16464e-10
1.89149e-10
1.92537e-10
1.65076e-10
1.63762e-10
1.81833e-10
1.87865e-10
2.95503e-10
2.4262e-10
1.27746e-10
2.20599e-10
2.19182e-10
1.70742e-10
1.77181e-10
1.93543e-10
1.89506e-10
2.07748e-10
2.03229e-10
2.33218e-10
2.27204e-10
2.62394e-10
2.57392e-10
2.69865e-10
2.6752e-10
2.39633e-10
2.42499e-10
2.64024e-10
2.58643e-10
2.72481e-10
2.78492e-10
5.51107e-10
5.36621e-10
3.81552e-10
3.72542e-10
3.76235e-10
3.80884e-10
3.94768e-10
3.99641e-10
3.81856e-10
3.86933e-10
3.32879e-10
3.37389e-10
3.11655e-10
3.07632e-10
3.46961e-10
3.53897e-10
3.02029e-10
3.04976e-10
2.7415e-10
2.68682e-10
2.76457e-10
2.76726e-10
2.78036e-10
2.76333e-10
2.45676e-10
3.36235e-10
2.33973e-10
1.91391e-09
1.93226e-09
6.2259e-07
5.49058e-07
4.27801e-08
1.53825e-07
1.03109e-07
4.47065e-08
3.99751e-09
1.03668e-07
1.40063e-07
2.80024e-08
-2.52567e-08
-1.86861e-07
3.46831e-09
3.07844e-09
7.22867e-08
6.77605e-08
3.17095e-07
2.79782e-07
7.0947e-07
7.1591e-07
9.67494e-07
1.0712e-06
6.66087e-07
7.1104e-07
1.89051e-07
1.11953e-07
-8.18265e-09
9.00957e-09
4.16798e-08
6.10704e-08
-5.3747e-08
-4.55849e-08
-3.68936e-08
1.36702e-07
5.4772e-08
1.70382e-08
1.62222e-07
2.04613e-07
8.56135e-09
-2.09811e-08
-4.00871e-08
4.10418e-07
3.60161e-07
3.40743e-07
-2.06694e-08
-1.96463e-08
-1.87427e-08
1.07709e-08
8.85469e-09
3.83895e-10
4.05592e-10
-2.22403e-10
-2.23215e-10
-1.66603e-10
-1.71181e-10
-1.56963e-10
-1.54653e-10
-2.43605e-10
-2.37951e-10
-3.77298e-10
-3.45167e-10
-2.42061e-10
-2.47475e-10
1.81053e-11
1.70175e-11
-8.42241e-11
-8.54613e-11
-9.65601e-11
-9.38352e-11
-9.76909e-11
-9.5947e-11
-1.08103e-10
-1.11559e-10
-1.12656e-10
-1.0948e-10
-1.27067e-10
-1.32162e-10
-1.50076e-10
-1.61131e-10
-4.66806e-11
-4.25969e-11
4.25722e-12
2.72325e-11
-4.01021e-11
-4.20663e-11
-4.60387e-11
-2.38949e-11
-1.44116e-11
1.35722e-12
2.28523e-10
2.08327e-10
3.46576e-08
3.78374e-08
2.92242e-08
2.68607e-08
2.73357e-09
2.86118e-09
3.66189e-09
3.89143e-09
-5.01516e-10
2.06739e-10
-6.52385e-10
-1.06921e-09
-4.34484e-09
-3.86914e-09
1.47209e-08
1.35833e-08
-1.66872e-08
-2.03335e-08
-1.84277e-09
-1.51002e-09
-4.67893e-09
-5.37046e-09
-8.27605e-09
-7.30873e-09
-1.41348e-08
-1.57599e-08
-3.15193e-08
-3.46599e-08
-1.83133e-08
-1.65144e-08
-2.64046e-08
-2.42379e-08
-2.36517e-08
-2.13461e-08
7.26632e-09
7.09451e-09
5.7967e-07
6.65949e-07
6.95557e-07
4.07988e-07
3.66107e-07
7.83343e-07
7.72616e-07
4.08499e-07
-9.81292e-08
9.6382e-09
7.1786e-09
1.04292e-06
9.60329e-07
1.21872e-06
4.81375e-07
4.39184e-07
1.68807e-07
1.32272e-07
2.69344e-07
2.36426e-07
2.54784e-07
1.27225e-07
-4.42652e-08
-1.23162e-07
-1.35287e-07
-5.22486e-08
-7.75173e-08
-1.73696e-07
1.40897e-07
1.75014e-07
-1.65435e-09
-9.89806e-09
3.90571e-07
2.61262e-07
4.45518e-07
5.22248e-07
4.05858e-07
9.34169e-07
1.1382e-06
8.83404e-07
9.14341e-07
8.66787e-07
7.58264e-07
1.35035e-06
1.35603e-06
1.64625e-06
1.6943e-06
8.0737e-07
8.28068e-07
1.0687e-06
1.07265e-06
3.69665e-07
3.44726e-07
-2.80639e-08
-3.2356e-08
-7.65149e-09
-1.33209e-08
-3.1657e-08
-3.56639e-08
-5.97492e-08
-6.58525e-08
-1.11909e-07
-1.0519e-07
-2.83148e-08
1.04917e-07
9.93564e-08
1.21145e-07
1.24661e-07
7.07858e-08
7.64348e-08
1.96412e-07
1.89943e-07
-1.11008e-08
-1.24101e-08
2.07361e-08
2.02543e-08
6.04204e-09
5.88676e-09
7.88502e-10
7.72784e-10
9.80769e-10
9.79416e-10
2.18377e-09
2.28526e-09
6.4413e-10
6.79242e-10
1.10568e-09
1.11428e-09
6.09681e-12
-6.33041e-11
7.44897e-10
7.55233e-10
7.22703e-10
7.31045e-10
6.7225e-10
6.83198e-10
6.93525e-10
7.10361e-10
1.55122e-10
5.63065e-11
9.19252e-10
9.39101e-10
8.46907e-10
8.60247e-10
8.39495e-10
8.43779e-10
1.40189e-09
1.45111e-09
1.55353e-09
1.62318e-09
2.21373e-09
2.30114e-09
1.90572e-09
1.79812e-09
2.60153e-09
2.71135e-09
2.40521e-09
2.44014e-09
2.57677e-09
2.38301e-09
1.55966e-09
1.46067e-09
1.24567e-09
1.23101e-09
1.28582e-09
1.37023e-09
8.39986e-10
7.92083e-10
9.2782e-10
9.85089e-10
3.54483e-10
3.40009e-10
4.02809e-10
3.90218e-10
5.45318e-10
5.28703e-10
6.98442e-10
7.11903e-10
7.87368e-10
8.04177e-10
7.57497e-10
7.72497e-10
6.79375e-10
6.63614e-10
7.02181e-10
6.97274e-10
6.93851e-10
6.91836e-10
7.73627e-10
7.81897e-10
7.93149e-10
7.86241e-10
4.96679e-10
5.10137e-10
5.28094e-10
5.40109e-10
4.902e-10
5.04681e-10
5.39703e-10
5.23037e-10
4.01021e-10
4.15777e-10
4.27016e-10
4.12326e-10
2.84553e-10
2.99896e-10
3.12858e-10
2.98384e-10
3.88346e-10
3.47163e-10
5.05301e-10
5.00257e-10
3.69503e-10
3.42173e-10
3.36256e-10
3.17269e-10
2.85576e-10
3.07644e-10
3.97663e-10
4.26284e-10
3.09346e-10
2.99701e-10
1.66854e-10
1.54628e-10
2.51136e-10
2.67338e-10
1.83125e-10
1.98942e-10
2.03785e-10
2.12394e-10
1.68411e-10
1.65322e-10
3.11102e-10
3.05121e-10
1.87442e-10
1.69822e-10
2.25955e-10
2.36616e-10
1.19265e-10
2.12105e-10
1.76893e-10
1.72058e-10
7.23032e-11
7.22582e-11
9.46496e-11
9.64562e-11
2.21669e-10
2.27977e-10
2.44933e-10
2.44081e-10
2.31471e-10
2.36008e-10
2.23663e-10
2.22392e-10
2.01917e-10
1.99206e-10
1.8295e-10
1.75416e-10
1.98505e-10
1.95244e-10
2.07406e-10
2.12242e-10
3.0884e-10
2.76642e-10
2.64568e-10
2.60004e-10
2.51056e-10
2.45713e-10
2.67648e-10
2.62985e-10
3.22763e-10
2.87542e-10
3.21613e-10
2.87199e-10
6.01698e-10
6.05216e-10
5.43015e-10
5.57027e-10
3.82037e-10
3.91803e-10
3.85717e-10
3.88922e-10
4.16774e-10
4.10065e-10
3.93928e-10
3.93986e-10
3.27601e-10
3.3142e-10
3.20633e-10
3.25279e-10
3.03633e-10
3.0757e-10
3.00589e-10
2.95037e-10
3.01379e-10
2.97852e-10
3.0558e-10
2.65892e-10
2.69198e-10
2.7349e-10
2.61925e-10
2.61856e-10
2.73438e-10
2.71767e-10
2.46007e-10
2.48307e-10
2.44988e-10
2.00972e-09
-7.16489e-10
-1.22884e-07
-1.28724e-07
5.10382e-07
4.46437e-07
-6.48467e-08
-9.38217e-08
1.60306e-07
1.0766e-07
2.24348e-08
8.40335e-08
1.73996e-07
2.0836e-07
2.16959e-07
2.1713e-07
5.34904e-08
1.02876e-07
2.19934e-07
2.7667e-07
-4.57713e-08
-4.14322e-08
1.82176e-08
2.12413e-08
4.56378e-08
6.54626e-08
1.2465e-07
1.10571e-07
3.02594e-07
3.41912e-07
6.35431e-07
6.3681e-07
6.49554e-07
6.78651e-07
9.81871e-07
1.08421e-06
6.33367e-07
5.95623e-07
1.06944e-06
1.01092e-06
2.15094e-07
1.49863e-07
2.94031e-08
6.04699e-09
-5.15757e-09
5.14568e-08
-3.04992e-08
-1.29665e-08
2.31053e-08