/*--------------------------------*- C++ -*----------------------------------*\
  =========                 |
  \\      /  F ield         | OpenFOAM: The Open Source CFD Toolbox
   \\    /   O peration     | Website:  https://openfoam.org
    \\  /    A nd           | Version:  7
     \\/     M anipulation  |
\*---------------------------------------------------------------------------*/
FoamFile
{
    version     2.0;
    format      ascii;
    class       volScalarField;
    location    "1500";
    object      T;
}
// * * * * * * * * * * * * * * * * * * * * * * * * * * * * * * * * * * * * * //

dimensions      [0 0 0 1 0 0 0];

internalField   nonuniform List<scalar> 
238806
(
0.962016
0.963231
0.967718
0.970202
0.967942
0.96422
0.964095
0.962533
0.961775
0.969619
0.970095
0.96856
0.976851
0.977129
0.976529
0.975235
0.970341
0.97052
0.958016
0.958119
0.974603
0.975128
0.975358
0.975834
0.976887
0.969383
0.969831
0.970331
0.971835
0.97099
0.958208
0.95781
0.973851
0.973028
0.972496
0.971706
1.00006
1.00008
0.968776
0.968889
0.969397
0.970051
0.958921
0.958621
0.958379
0.958424
0.977273
0.976239
0.97223
0.971378
0.967582
0.967313
0.976135
0.976424
0.999885
0.999885
0.969345
0.968099
0.968576
0.967516
0.967711
0.969589
0.96816
0.968802
0.968182
0.958636
0.958742
0.96141
0.961924
0.964535
0.965061
0.974067
0.974859
0.971964
0.972748
0.969376
0.969728
0.972523
0.971741
0.998108
0.998095
0.97152
0.970663
0.962096
0.96184
0.966522
0.967187
0.971827
0.97113
0.970908
0.971257
0.967605
0.967284
0.96005
0.960573
0.969066
0.968417
0.968679
0.969518
0.970726
0.958852
0.961187
0.961453
0.961977
0.961852
0.979876
0.980419
0.973177
0.973888
0.973535
0.974331
0.969387
0.969019
0.968057
0.968327
0.976626
0.975901
1.00004
1.00004
1.00004
0.977053
0.978179
0.962904
0.96313
0.963737
0.963576
0.977033
0.977237
0.972621
0.972618
0.968421
0.9709
0.971811
0.971404
0.966165
0.966295
0.960073
0.959737
0.974278
0.975471
0.974594
0.974814
0.967859
0.959766
0.95891
0.960249
0.96052
0.962063
0.96173
0.963638
0.964012
0.966171
0.96651
0.979392
0.980055
0.975058
0.975692
0.974633
0.975407
0.975285
0.975788
0.970078
0.970436
0.967311
0.967545
0.972676
0.97188
0.997453
0.997468
1.00006
1.00008
0.972195
0.971385
0.989531
0.98969
0.989804
0.96233
0.962544
0.96803
0.968303
0.978628
0.978513
0.972441
0.971235
0.970348
0.97068
0.961559
0.962004
0.959525
0.959348
0.959012
0.958713
0.962482
0.962852
0.969482
0.967595
0.968345
0.97295
0.972853
0.968863
0.968844
0.958451
0.958158
0.960518
0.961245
0.960866
0.961184
0.966016
0.966688
0.964625
0.964255
0.985389
0.985199
0.981204
0.981857
0.978036
0.97726
0.975708
0.974744
0.9733
0.972559
0.969586
0.970056
0.968354
0.968082
0.968268
0.968054
0.972547
0.97175
0.994742
0.994485
0.99934
0.999299
0.999304
0.999258
0.99992
0.999926
0.964182
0.963464
0.965605
0.965501
0.980007
0.980907
0.9916
0.991849
0.963454
0.963689
0.967014
0.966746
0.967982
0.968662
0.970704
0.971512
0.975492
0.975395
0.969517
0.969111
0.959728
0.960444
0.959743
0.959841
0.959707
0.959339
0.971124
0.971061
0.963009
0.962525
0.968881
0.969506
0.97404
0.974882
0.967741
0.973037
0.964851
0.967405
0.965099
0.958601
0.958892
0.959345
0.9596
0.961005
0.960716
0.963197
0.96196
0.963046
0.963009
0.964405
0.964598
0.981688
0.982102
0.979137
0.97864
0.981681
0.982303
0.979778
0.980525
0.976208
0.977028
0.975139
0.97596
0.975198
0.975949
0.976654
0.976972
0.97126
0.971891
0.969551
0.969779
0.968711
0.96904
0.976453
0.976335
0.973456
0.97333
0.973521
0.974256
0.997335
0.997209
0.995873
0.995663
0.997805
0.99792
0.998196
0.998208
0.999486
0.999485
0.999926
0.99992
1.00006
0.972892
0.972229
0.978334
0.977334
0.999878
0.999889
0.981873
0.981331
0.989743
0.990026
0.964189
0.965069
0.963305
0.963073
0.967638
0.967378
0.969174
0.970096
0.972765
0.97315
0.972952
0.973841
0.963888
0.963161
0.957311
0.960468
0.961492
0.961081
0.960531
0.959238
0.959609
0.969794
0.969723
0.965209
0.964816
0.962086
0.962637
0.969128
0.970915
0.976006
0.965189
0.966071
0.970928
0.970188
0.969105
0.967765
0.968941
0.968568
0.962034
0.962499
0.958962
0.958799
0.959434
0.959564
0.959638
0.959997
0.959927
0.960061
0.969386
0.968506
0.967248
0.966574
0.962437
0.962564
0.96202
0.962224
0.96428
0.964299
0.964875
0.965245
0.966934
0.967606
0.984579
0.9848
0.978754
0.978242
0.982152
0.982746
0.980258
0.980972
0.97834
0.979175
0.976861
0.977776
0.975779
0.976507
0.976249
0.975958
0.971915
0.972525
0.96905
0.968802
0.971636
0.970542
0.974065
0.973299
0.974224
0.974102
0.972788
0.996611
0.996463
0.994741
0.994485
0.996296
0.996479
0.996811
0.996638
0.999301
0.999343
0.999168
0.999124
0.999417
0.999451
0.99998
0.99998
0.999557
0.999529
0.967731
0.9677
0.967893
0.979051
0.979456
0.978735
0.979475
0.978958
0.97891
0.999875
0.999874
0.987335
0.987707
0.989294
0.989492
0.989853
0.98984
0.98158
0.981401
0.963184
0.962923
0.964064
0.964678
0.965941
0.965854
0.967381
0.970304
0.970013
0.971296
0.974339
0.974152
0.975087
0.974345
0.958714
0.963293
0.961049
0.960312
0.960635
0.960158
0.960425
0.959155
0.958865
0.972475
0.972416
0.969939
0.970596
0.968496
0.969141
0.96305
0.96339
0.969544
0.968594
0.972458
0.971619
0.972061
0.975778
0.973159
0.973545
0.973458
0.97422
0.972095
0.968665
0.96378
0.962937
0.961104
0.96214
0.959062
0.959405
0.959744
0.959224
0.95849
0.958776
0.960097
0.959797
0.967933
0.968797
0.965543
0.966238
0.964134
0.963509
0.963663
0.963635
0.962494
0.962796
0.965641
0.965631
0.965251
0.965064
0.967191
0.966861
0.9863
0.986055
0.982088
0.981397
0.976919
0.976334
0.979865
0.979297
0.981063
0.980456
0.979552
0.97886
0.980732
0.981416
0.978829
0.979635
0.977355
0.978245
0.975085
0.974425
0.976362
0.977064
0.974303
0.974151
0.974828
0.974422
0.972573
0.973162
0.970659
0.969944
0.971851
0.972033
0.96789
0.967815
0.970055
0.970801
0.971225
0.972065
0.973278
0.974049
0.974987
0.975707
0.998285
0.998367
0.99721
0.997336
0.995866
0.995655
0.997588
0.997601
0.997919
0.997803
0.998517
0.998591
0.999247
0.999251
0.999156
0.999158
0.999453
0.999418
0.999991
0.999994
1.00006
1.00008
0.999806
0.999803
0.999931
0.999931
0.970589
0.971841
0.964991
0.963964
0.98078
0.981092
0.973014
0.973899
0.974082
0.972919
0.978541
0.977531
0.999828
0.999827
0.999998
0.999998
0.992957
0.993056
0.990904
0.991166
0.991285
0.991087
0.989986
0.990041
0.990107
0.989657
0.964254
0.964417
0.962816
0.962446
0.961946
0.961415
0.964358
0.963839
0.965322
0.965218
0.96771
0.967005
0.968832
0.96999
0.979859
0.979591
0.972243
0.97286
0.97216
0.973751
0.975212
0.964997
0.9649
0.961526
0.96189
0.96194
0.96097
0.960907
0.960967
0.95931
0.959003
0.973153
0.973097
0.968894
0.969526
0.970456
0.970389
0.963855
0.963437
0.962505
0.962285
0.971295
0.972622
0.971291
0.969796
0.970015
0.970521
0.96769
0.965597
0.967377
0.966769
0.967242
0.970346
0.971066
0.974816
0.967583
0.962439
0.963181
0.959285
0.959489
0.959105
0.959011
0.959109
0.95909
0.96787
0.967345
0.968702
0.967461
0.967985
0.964134
0.963475
0.963209
0.963863
0.962938
0.962494
0.962811
0.962594
0.962869
0.964476
0.966609
0.966436
0.964962
0.964949
0.965697
0.966292
0.982781
0.982401
0.984429
0.984705
0.984869
0.984738
0.981715
0.981321
0.977622
0.976948
0.977533
0.976973
0.979307
0.978713
0.980984
0.981563
0.979041
0.978322
0.979306
0.980083
0.977862
0.978718
0.974479
0.973795
0.975527
0.975247
0.975966
0.976449
0.970877
0.97137
0.970618
0.971283
0.970803
0.97115
0.969333
0.969403
0.970711
0.969478
0.969611
0.971345
0.970595
0.974805
0.974816
0.973167
0.972409
0.975405
0.97467
0.981513
0.980968
0.998288
0.998291
0.997568
0.997681
0.997367
0.997346
0.995262
0.995486
0.996469
0.996285
0.996818
0.996644
0.999305
0.999346
0.998826
0.998831
0.998741
0.998739
0.999087
0.999038
0.999069
0.999018
0.99932
0.999279
0.999341
0.99938
0.999896
0.999888
0.999983
0.99998
1
1
1.00006
1.00008
1.00006
1.00008
0.99982
0.999819
1.00004
1.00003
1.00004
0.972446
0.972201
0.963518
0.96256
0.965997
0.962799
0.963514
0.960147
0.960714
0.979165
0.979506
0.975237
0.974742
0.974438
0.973632
0.968858
0.969206
0.969957
0.969368
0.988069
0.98887
0.999923
0.999929
0.999865
0.999865
0.999934
0.999934
0.999985
0.999986
0.989831
0.989445
0.986573
0.986957
0.990471
0.990756
0.991426
0.991685
0.990611
0.990813
0.989808
0.989913
0.989906
0.989549
0.989687
0.966898
0.966562
0.963057
0.962569
0.962947
0.962987
0.962174
0.963444
0.963341
0.963288
0.965562
0.965171
0.96777
0.967854
0.966471
0.965946
0.970375
0.969467
0.978764
0.978782
0.971426
0.972116
0.973166
0.972453
0.966304
0.966242
0.961461
0.961163
0.96037
0.960296
0.960576
0.960887
0.959513
0.959858
0.971799
0.971737
0.970164
0.970814
0.966068
0.96574
0.963831
0.964321
0.961944
0.961423
0.971306
0.969889
0.969059
0.976289
0.977188
0.975453
0.972139
0.972489
0.973748
0.974047
0.974256
0.975377
0.966859
0.9649
0.969478
0.968927
0.959311
0.958746
0.960007
0.960368
0.959951
0.960217
0.959218
0.958931
0.966432
0.966605
0.967198
0.964893
0.964225
0.963057
0.963699
0.961837
0.96189
0.963603
0.963112
0.966348
0.966345
0.965877
0.965523
0.985542
0.985809
0.985819
0.985599
0.984043
0.98418
0.980446
0.980872
0.978179
0.976305
0.975696
0.97887
0.979358
0.980558
0.979924
0.977792
0.978541
0.976504
0.975674
0.973553
0.973392
0.977322
0.977763
0.975138
0.975528
0.972984
0.973425
0.970704
0.970208
0.97154
0.971875
0.971065
0.970947
0.967151
0.967069
0.96707
0.96715
0.96926
0.969566
0.969578
0.975546
0.975548
0.972893
0.972122
0.975163
0.974417
0.998359
0.998363
0.99837
0.998373
0.997795
0.997795
0.997457
0.997456
0.995174
0.994957
0.995469
0.995244
0.996462
0.996276
0.997441
0.997577
0.997681
0.997684
0.998596
0.998594
0.998888
0.998893
0.998511
0.998508
0.999474
0.999505
0.999157
0.999162
0.999208
0.99925
0.999022
0.998968
0.999061
0.999009
0.999463
0.999495
0.999312
0.999269
0.999382
0.999342
0.999666
0.999667
0.999983
0.999983
1
0.999999
1.00006
1.00008
1.00001
1
0.99992
0.999925
0.999819
0.999806
0.999931
0.999931
0.999956
0.999956
0.966811
0.965497
0.965215
0.97087
0.971853
0.967028
0.967302
0.966335
0.963695
0.991635
0.992082
0.963988
0.964753
0.98163
0.981851
0.979915
0.980288
0.972375
0.973355
0.971123
0.972177
0.971387
0.971387
0.985447
0.984727
0.989683
0.989619
0.999964
0.999951
0.999811
0.99981
0.999876
0.999876
0.999864
0.999863
0.999994
0.999994
0.999971
0.999971
0.981239
0.980677
0.995286
0.99523
0.992472
0.992314
0.982822
0.982277
0.98804
0.987684
0.99135
0.991099
0.990389
0.990604
0.990484
0.990336
0.98969
0.989902
0.990096
0.981747
0.963514
0.963933
0.961792
0.961926
0.964574
0.965021
0.965508
0.964918
0.967208
0.967129
0.969298
0.967756
0.968743
0.968391
0.979405
0.97961
0.980398
0.977589
0.977639
0.969425
0.969998
0.974081
0.974532
0.965652
0.964157
0.965196
0.964811
0.962344
0.962528
0.961365
0.959914
0.960057
0.961285
0.96116
0.970549
0.971154
0.97213
0.971929
0.969293
0.968655
0.964335
0.964847
0.96842
0.96678
0.966823
0.96946
0.967909
0.970849
0.969926
0.97352
0.973126
0.972298
0.969951
0.96996
0.970741
0.971464
0.971602
0.97292
0.973301
0.974508
0.97571
0.967441
0.961319
0.961143
0.960497
0.960345
0.959594
0.959389
0.959803
0.959815
0.965214
0.96503
0.966927
0.967768
0.964713
0.964125
0.963642
0.962792
0.963976
0.963778
0.96246
0.962411
0.965734
0.965912
0.984404
0.984725
0.983172
0.983475
0.985038
0.985284
0.984593
0.984507
0.979576
0.980021
0.979443
0.979044
0.977538
0.978187
0.978145
0.97761
0.977525
0.976727
0.976306
0.976472
0.97725
0.977606
0.974128
0.973705
0.973244
0.973813
0.971275
0.971079
0.972284
0.972603
0.970142
0.970254
0.967812
0.967891
0.968667
0.968584
0.968537
0.968907
0.975604
0.975722
0.976271
0.976259
0.973923
0.973659
0.998281
0.998275
0.9979
0.9979
0.997686
0.997573
0.996645
0.996484
0.997258
0.997226
0.994781
0.994727
0.99501
0.995029
0.995701
0.995907
0.996093
0.996106
0.996829
0.996655
0.997553
0.997418
0.999314
0.999352
0.99852
0.998521
0.998403
0.998488
0.998418
0.998418
0.998663
0.998662
0.998744
0.99934
0.999299
0.999255
0.99921
0.999149
0.999205
0.999248
0.999027
0.998974
0.998963
0.998958
0.999106
0.999107
0.999159
0.999208
0.999435
0.9994
0.999316
0.999275
0.999383
0.999344
0.999642
0.999619
0.999533
0.999532
0.999993
0.999995
0.999982
0.999983
0.999996
0.999996
1.00003
1.00004
1.00006
1.00008
1.00002
1.00003
0.99992
0.999925
0.99979
0.999789
0.999884
0.999885
0.99994
0.99994
0.999936
0.999936
0.999974
0.999974
1.00003
1.00003
0.966993
0.966046
0.969991
0.970176
0.965584
0.966304
0.968032
0.968518
0.964278
0.963579
0.966342
0.976119
0.975814
0.95921
0.958842
0.980679
0.981535
0.980838
0.978664
0.978295
0.974362
0.975218
0.969124
0.968519
0.96885
0.967604
0.970798
0.970675
0.972844
0.98896
0.988689
0.988944
0.988153
0.999951
0.999951
0.999928
0.999903
0.999884
0.999884
0.999834
0.999833
0.999886
0.999886
0.999993
0.999994
0.999974
0.999974
0.984341
0.983791
0.982636
0.982096
0.995023
0.995082
0.994746
0.994552
0.993877
0.993849
0.993137
0.993202
0.987323
0.986957
0.991241
0.99151
0.99211
0.992326
0.990228
0.990452
0.990887
0.990687
0.989595
0.989429
0.96509
0.965885
0.964775
0.965277
0.962268
0.961976
0.962804
0.962304
0.965774
0.966134
0.96657
0.966493
0.967752
0.967053
0.968317
0.967834
0.975855
0.976142
0.97735
0.970423
0.971189
0.970587
0.971066
0.973073
0.973639
0.965024
0.965917
0.961768
0.962258
0.959893
0.960091
0.973457
0.973273
0.971259
0.971468
0.961682
0.961258
0.964789
0.964398
0.963742
0.963756
0.97218
0.973171
0.972056
0.970029
0.970165
0.968872
0.967739
0.971431
0.970414
0.970646
0.969825
0.974055
0.973957
0.985475
0.985351
0.969184
0.968608
0.970491
0.971663
0.970865
0.974484
0.974543
0.975255
0.973542
0.973772
0.96251
0.960804
0.961911
0.961328
0.959978
0.959857
0.958204
0.958463
0.957834
0.960784
0.960804
0.959911
0.960044
0.96452
0.964352
0.966303
0.966098
0.966005
0.965351
0.963804
0.964456
0.963167
0.963367
0.983791
0.984142
0.986086
0.986556
0.98378
0.984089
0.982287
0.982529
0.982601
0.982915
0.983216
0.982966
0.980011
0.980712
0.979741
0.980062
0.978126
0.978747
0.975766
0.975617
0.976919
0.976558
0.976648
0.977109
0.972732
0.972272
0.973919
0.974466
0.970523
0.970312
0.970122
0.970178
0.968572
0.968644
0.967853
0.968254
0.97486
0.97498
0.99424
0.994265
0.997996
0.997999
0.998051
0.998146
0.997561
0.997674
0.997208
0.997334
0.996477
0.996645
0.998017
0.998032
0.996435
0.996613
0.995296
0.995326
0.995899
0.995662
0.995456
0.99523
0.996455
0.996267
0.995893
0.995685
0.996083
0.996844
0.996672
0.996993
0.996655
0.996823
0.997423
0.997557
0.999489
0.999519
0.999415
0.999379
0.999011
0.999008
0.998664
0.998661
0.998177
0.998163
0.99822
0.998121
0.998761
0.998767
0.998585
0.998585
0.998872
0.998872
0.999374
0.99941
0.999205
0.999197
0.998985
0.998979
0.999121
0.999166
0.999013
0.999065
0.998935
0.998935
0.999209
0.999209
0.999398
0.999433
0.999352
0.999355
0.999255
0.999299
0.999488
0.999455
0.999829
0.999841
0.999565
0.999537
0.999589
0.99959
0.999534
0.999922
0.999927
1
0.999996
0.999983
0.999981
1
0.999998
1
0.999999
1.00001
1.00001
1.00004
1.00003
1.00005
1.00005
1.00003
1.00002
1.00006
1.00008
0.999556
0.999529
0.99988
0.99988
0.999913
0.999913
0.999902
0.999908
0.999945
0.999945
0.999936
0.999936
0.999968
0.999968
0.999994
0.999994
1.00004
1.00006
0.982922
0.982798
0.971473
0.97062
0.970583
0.969157
0.969368
0.968271
0.968446
0.969099
0.966775
0.961223
0.980962
0.981493
0.970424
0.971041
0.95969
0.959387
0.965447
0.964878
0.980279
0.979998
0.973496
0.972785
0.976141
0.975281
0.967793
0.969028
0.968242
0.969462
0.968685
0.968593
0.969094
0.976002
0.974843
0.974381
0.992726
0.992747
0.985951
0.985244
0.995415
0.995113
0.999813
0.999813
0.999987
0.999985
0.999925
0.999899
0.9999
0.999892
0.999695
0.999696
0.999846
0.999847
0.999852
0.999852
0.999913
0.999912
0.999942
0.999942
0.999995
0.999994
0.999981
0.999981
1.00001
1.00002
0.980965
0.980393
0.981544
0.980988
0.992545
0.992827
0.993416
0.993702
0.994098
0.994142
0.994018
0.992982
0.992911
0.984697
0.9852
0.989297
0.989596
0.99104
0.99132
0.991894
0.992124
0.992082
0.991882
0.988825
0.989073
0.990518
0.990725
0.990285
0.990463
0.982368
0.982319
0.964157
0.965368
0.965418
0.96588
0.962444
0.962709
0.961915
0.961549
0.966391
0.966752
0.964743
0.964609
0.967482
0.968372
0.980574
0.980461
0.976226
0.972156
0.961028
0.960696
0.9726
0.972794
0.960946
0.964873
0.965255
0.964678
0.963899
0.967414
0.967148
0.968991
0.968401
0.967376
0.967108
0.972117
0.973285
0.972617
0.976935
0.980122
0.979916
0.968537
0.967894
0.971277
0.970822
0.973279
0.972465
0.976044
0.963078
0.963311
0.965793
0.961493
0.961355
0.961459
0.962953
0.960854
0.960958
0.958947
0.958949
0.958252
0.958212
0.961283
0.961281
0.960505
0.960365
0.965111
0.964781
0.965866
0.965705
0.964738
0.965413
0.980865
0.98128
0.98251
0.982926
0.984496
0.985051
0.985583
0.984161
0.983902
0.984365
0.985022
0.984374
0.983647
0.981677
0.98127
0.982083
0.980957
0.973339
0.973034
0.975042
0.974895
0.977995
0.978415
0.972044
0.971567
0.970914
0.970958
0.96903
0.968858
0.995227
0.995407
0.991235
0.991289
0.99909
0.999038
0.996047
0.995848
0.996473
0.996621
0.997894
0.997889
0.997196
0.997322
0.997574
0.997687
0.997455
0.995848
0.995682
0.997812
0.997793
0.997942
0.998048
0.99649
0.996331
0.995238
0.995025
0.994979
0.995026
0.994987
0.994997
0.994765
0.994509
0.994996
0.996075
0.99607
0.995881
0.995673
0.996864
0.996693
0.996975
0.996982
0.997924
0.997808
0.997554
0.99742
0.999428
0.999461
0.999381
0.999417
0.999067
0.999113
0.999013
0.998275
0.998277
0.998819
0.998882
0.99847
0.998479
0.998325
0.998337
0.998328
0.998328
0.998525
0.998519
0.998664
0.998587
0.998806
0.998805
0.998872
0.999482
0.99945
0.999296
0.999338
0.999032
0.999081
0.999253
0.999211
0.999073
0.999077
0.998995
0.998939
0.999052
0.999052
0.999105
0.999465
0.999497
0.999323
0.999283
0.999359
0.999301
0.999256
0.999491
0.999459
0.99942
0.999549
0.99955
0.999566
0.999538
0.999563
0.999564
0.99959
0.999563
0.999889
0.999896
0.999968
0.999968
0.999997
0.999996
0.999995
0.999983
0.999981
0.999986
0.999989
0.999994
0.999991
0.999996
0.999996
1.00001
1.00001
1.00004
1.00003
1.00005
1.00005
1
1.00001
1.00003
1.00002
1.00004
1.00004
0.999695
0.999714
0.99976
0.999775
0.999887
0.999887
0.999862
0.999862
0.999814
0.999802
0.999892
0.999892
0.999914
0.999914
0.999939
0.999935
0.999945
0.999945
0.999953
0.999953
0.999968
0.999968
1.00008
1.00007
1.00004
1.00005
1.00006
0.985076
0.985571
0.960954
0.961603
0.9693
0.969294
0.969924
0.971801
0.969466
0.969672
0.966746
0.968127
0.968459
0.96737
0.991675
0.992117
0.974909
0.975227
0.964709
0.965473
0.960296
0.960168
0.958839
0.958229
0.960946
0.960541
0.963702
0.96399
0.978626
0.977779
0.974156
0.973594
0.976069
0.976603
0.977031
0.968867
0.969345
0.968598
0.965496
0.964908
0.970109
0.969304
0.970819
0.964972
0.96261
0.962558
0.989805
0.989581
0.98931
0.9863
0.987213
0.997388
0.997356
0.998904
0.99891
0.999899
0.9999
0.999981
0.999978
0.999987
0.999985
0.999921
0.999895
0.999991
0.999989
0.999892
0.9999
0.999724
0.999723
0.999858
0.999859
0.999868
0.999869
0.99984
0.999839
0.999905
0.999906
0.999928
0.999928
0.999989
0.999988
0.999996
0.999996
1
1.00001
0.999979
0.999979
0.999983
0.999984
0.999996
0.999998
1.00004
1.00006
0.982099
0.981533
0.982412
0.982939
0.992708
0.992418
0.993777
0.993497
0.991984
0.991806
0.993707
0.993807
0.992823
0.992717
0.987797
0.988255
0.987124
0.986785
0.990832
0.991123
0.990969
0.990695
0.992011
0.992234
0.991683
0.991484
0.989114
0.988897
0.990034
0.990269
0.990102
0.990309
0.990666
0.990867
0.983241
0.98366
0.963582
0.963844
0.965078
0.965823
0.966382
0.962989
0.963275
0.966122
0.980928
0.9827
0.982303
0.961814
0.961034
0.961847
0.965484
0.966391
0.971537
0.970272
0.965308
0.966609
0.967598
0.969342
0.974291
0.980942
0.980894
0.976949
0.977647
0.977301
0.968915
0.970287
0.972907
0.972529
0.964899
0.964287
0.967302
0.962612
0.962793
0.96053
0.95992
0.961464
0.961243
0.961581
0.961921
0.959363
0.95936
0.958746
0.958835
0.961499
0.961354
0.960287
0.960287
0.965503
0.965838
0.983446
0.983102
0.983338
0.983924
0.985283
0.98499
0.982865
0.983645
0.983833
0.983917
0.98045
0.973781
0.974072
0.972794
0.972623
0.976227
0.975852
0.969335
0.969386
0.989467
0.989159
0.985206
0.985298
0.991559
0.991584
0.998944
0.998948
0.998959
0.998961
0.995894
0.995701
0.997206
0.997332
0.997209
0.997073
0.995943
0.995784
0.998097
0.998097
0.997793
0.997898
0.997451
0.997444
0.997572
0.997685
0.995882
0.99572
0.997694
0.997673
0.997925
0.997908
0.997212
0.997077
0.995375
0.995168
0.995305
0.995096
0.995071
0.994836
0.995611
0.995857
0.994675
0.994624
0.994987
0.994984
0.994531
0.994785
0.99627
0.996457
0.997008
0.997026
0.996807
0.996636
0.997804
0.997921
0.997553
0.997418
0.999488
0.999518
0.999492
0.999522
0.999384
0.999419
0.999064
0.999061
0.998836
0.998831
0.998362
0.99836
0.998498
0.998574
0.998382
0.998392
0.998393
0.998384
0.998149
0.998135
0.998053
0.998046
0.998828
0.998833
0.998676
0.99868
0.998666
0.998668
0.998505
0.998504
0.998873
0.998874
0.998736
0.998735
0.999332
0.999293
0.999448
0.99948
0.999294
0.999336
0.999008
0.999003
0.999114
0.999161
0.99921
0.999252
0.999245
0.999202
0.998997
0.998942
0.998994
0.998995
0.999461
0.999493
0.999326
0.999286
0.999388
0.999349
0.999302
0.999257
0.999424
0.999422
0.999829
0.999841
0.99966
0.99968
0.99959
0.999591
0.999613
0.999613
0.999562
0.999561
0.999922
0.999927
0.999978
0.99998
1.00006
1.00006
0.999988
0.999985
0.999985
0.999985
0.999988
0.999985
0.999988
0.999986
0.999988
0.999986
0.999993
0.999991
0.999999
1
1.00006
1.00008
1.00004
1.00003
1.00001
1
1.00003
1.00002
1.00006
1.00008
1.00006
1.00008
0.999656
0.999656
0.999714
0.999695
0.999775
0.99976
0.999887
0.999887
0.999832
0.999831
0.999813
0.999801
0.9999
0.9999
0.999894
0.999886
0.999926
0.99992
0.999914
0.999915
0.99994
0.99994
0.99996
0.999959
0.999971
0.999971
0.999992
0.999989
0.999981
0.999981
1.00001
1.00001
1.00003
0.986059
0.98652
0.981345
0.982157
0.962032
0.962781
0.972722
0.972531
0.967506
0.968036
0.970142
0.970937
0.966095
0.966004
0.965493
0.965384
0.967448
0.966853
0.962422
0.960911
0.985521
0.985864
0.982528
0.982164
0.9743
0.973786
0.970796
0.971672
0.965009
0.964249
0.960754
0.960856
0.960906
0.96061
0.95871
0.958329
0.961401
0.962509
0.95866
0.959051
0.962594
0.962586
0.976294
0.976847
0.976508
0.974228
0.975687
0.974808
0.971684
0.970777
0.968163
0.967672
0.967344
0.966223
0.965862
0.966932
0.97425
0.973516
0.975179
0.967234
0.966577
0.973139
0.972922
0.990405
0.9901
0.989963
0.98963
0.986206
0.986667
0.989074
0.988306
0.99163
0.991589
0.995359
0.995171
0.992943
0.99307
0.999889
0.999878
0.999884
0.999872
0.999961
0.999956
0.999971
0.999974
0.999952
0.999964
0.999943
0.999939
0.999984
0.999979
0.999863
0.999852
0.999739
0.999739
0.99961
0.999612
0.999782
0.999781
0.99993
0.99992
0.999848
0.999835
0.99984
0.999841
0.999826
0.999825
0.999922
0.999923
0.999897
0.999896
0.999921
0.99992
0.999967
0.999967
0.999991
0.999991
0.999998
0.999998
0.999968
0.999968
0.999977
0.999977
0.999981
0.999982
0.999986
0.999999
1
1.00004
1.00006
0.981802
0.982356
0.99517
0.995109
0.990726
0.990367
0.992584
0.992249
0.994967
0.995173
0.991322
0.991126
0.991916
0.99174
0.993469
0.993594
0.993518
0.993433
0.99349
0.993482
0.992821
0.992861
0.987731
0.988197
0.987532
0.987238
0.988792
0.989142
0.990109
0.989839
0.98989
0.990182
0.991754
0.991994
0.99224
0.992446
0.991423
0.991626
0.991067
0.991267
0.989331
0.989095
0.989779
0.990004
0.990407
0.99021
0.984565
0.983833
0.982492
0.965108
0.964206
0.982541
0.982969
0.971744
0.972347
0.966555
0.965972
0.960731
0.975811
0.974446
0.973235
0.970228
0.969466
0.967631
0.983422
0.982583
0.981018
0.980315
0.978121
0.979182
0.969756
0.969179
0.964791
0.964721
0.963066
0.962346
0.961267
0.961375
0.96191
0.962838
0.960572
0.961178
0.959591
0.959481
0.958538
0.95859
0.960848
0.960983
0.982029
0.981648
0.983541
0.983157
0.983422
0.983291
0.974519
0.974801
0.988846
0.989173
0.98011
0.979494
0.988172
0.987661
0.994068
0.993806
0.993959
0.993986
0.9992
0.999204
0.999022
0.999024
0.998522
0.998594
0.997973
0.998076
0.995501
0.997537
0.997527
0.997895
0.997898
0.998088
0.998182
0.995811
0.99564
0.996093
0.99606
0.995809
0.995826
0.998189
0.998189
0.998
0.998
0.997329
0.997204
0.996882
0.997019
0.995704
0.995524
0.99757
0.997547
0.997831
0.997993
0.998094
0.997046
0.997183
0.995444
0.995241
0.995881
0.995696
0.995465
0.995506
0.995117
0.994893
0.995619
0.99587
0.99479
0.994539
0.995439
0.995216
0.99475
0.994493
0.997837
0.997849
0.997328
0.99718
0.997289
0.99714
0.997278
0.997128
0.99681
0.99664
0.997137
0.997284
0.997556
0.99742
0.997681
0.999349
0.999308
0.999491
0.999521
0.999492
0.999521
0.999202
0.999191
0.99923
0.999114
0.999113
0.998897
0.998893
0.99826
0.998266
0.998778
0.998773
0.998522
0.998522
0.998238
0.998228
0.998455
0.998535
0.998258
0.99827
0.998414
0.998424
0.998232
0.998245
0.998134
0.998134
0.99889
0.998895
0.9986
0.998605
0.998589
0.998592
0.998503
0.998876
0.998812
0.998806
0.998737
0.999472
0.999503
0.999446
0.999479
0.999373
0.999409
0.99917
0.99921
0.999056
0.999061
0.999094
0.999044
0.999164
0.999117
0.999157
0.99911
0.999047
0.99905
0.999143
0.999174
0.999137
0.99939
0.999427
0.9995
0.999468
0.999361
0.999364
0.999308
0.999265
0.999457
0.99949
0.999603
0.999602
0.999657
0.999676
0.999595
0.999569
0.999637
0.99965
0.999635
0.999617
0.999536
0.999535
0.999779
0.999794
0.999825
0.999811
0.999921
0.999915
0.999933
0.999933
0.999978
0.999981
1.00001
1
1.00001
0.999982
0.99998
0.999983
0.99998
0.999988
0.999988
0.999985
0.999988
0.999983
0.999983
0.999988
0.999986
0.999993
0.999991
1.00004
1.00003
1.00005
1.00005
1.00001
1
1.00001
1
1.00002
1.00002
1.00006
1.00008
1.00006
1.00008
1.00006
1.00008
0.999537
0.999536
0.999695
0.999713
0.999594
0.999595
0.999879
0.999879
0.999806
0.999806
0.999831
0.99985
0.99986
0.999907
0.999907
0.999887
0.999894
0.99992
0.999926
0.999935
0.99993
0.999953
0.999953
0.999961
0.999963
0.999971
0.999971
0.999988
0.999988
1.00005
1.00005
0.999977
0.999977
1.00001
1.00001
0.993647
0.993403
0.970977
0.970893
0.971925
0.979282
0.980632
0.963373
0.962599
0.966054
0.966961
0.966249
0.965887
0.969102
0.968431
0.969487
0.969961
0.969945
0.970696
0.969497
0.964434
0.993207
0.993534
0.983589
0.983636
0.980781
0.980213
0.98135
0.981189
0.968451
0.969119
0.972463
0.973268
0.972674
0.972129
0.970162
0.971046
0.964257
0.96502
0.965786
0.961394
0.961467
0.95846
0.958066
0.960398
0.95981
0.959208
0.962212
0.961858
0.96357
0.961238
0.961963
0.960348
0.959933
0.960127
0.959797
0.981137
0.981119
0.976968
0.97782
0.975581
0.976069
0.975388
0.974194
0.974745
0.972391
0.97391
0.969875
0.969373
0.970584
0.96817
0.974763
0.975485
0.983465
0.982739
0.965839
0.969052
0.967788
0.99346
0.99359
0.990557
0.990263
0.989236
0.989311
0.98953
0.986612
0.986384
0.990361
0.990605
0.989795
0.999447
0.999481
0.995144
0.995333
0.99345
0.993334
0.999051
0.998978
0.999713
0.999711
0.999859
0.999859
0.999964
0.999969
0.999956
0.999961
0.999983
0.99998
0.99999
0.999992
0.999918
0.99989
0.999988
0.999991
0.99998
0.999985
0.999935
0.99994
0.999882
0.99989
0.999747
0.999763
0.999739
0.999672
0.999673
0.999732
0.999731
0.999722
0.999795
0.999794
0.999861
0.999862
0.999859
0.999853
0.999853
0.999914
0.999914
0.999928
0.999929
0.999947
0.999947
0.999987
0.999988
0.999982
0.999979
0.999995
0.999994
1
0.999999
1.00001
1.00001
0.999945
0.999946
0.999979
0.999977
0.999983
0.999981
1.00003
1.00004
1.00002
1.00001
0.984239
0.98476
0.98323
0.982669
0.994252
0.994264
0.994896
0.99496
0.990172
0.989804
0.989998
0.98962
0.994397
0.994649
0.994894
0.995105
0.991017
0.990811
0.991624
0.991438
0.993093
0.992953
0.993572
0.993466
0.994029
0.994075
0.993688
0.993673
0.993085
0.993085
0.992678
0.992683
0.980851
0.980263
0.982606
0.983139
0.989475
0.989839
0.985787
0.986183
0.989412
0.989077
0.990339
0.990082
0.990419
0.990141
0.990792
0.991034
0.991566
0.991788
0.992185
0.992396
0.990933
0.991141
0.991467
0.991668
0.988343
0.988585
0.989318
0.989567
0.990174
0.989959
0.982824
0.982873
0.982953
0.983368
0.982205
0.982728
0.983053
0.98345
0.976453
0.976951
0.971869
0.971251
0.96297
0.963011
0.964206
0.961982
0.961698
0.974209
0.975259
0.972938
0.972839
0.970643
0.970031
0.981447
0.981517
0.981595
0.982072
0.978557
0.979375
0.978998
0.962834
0.96341
0.960341
0.96014
0.961077
0.960872
0.961672
0.95912
0.959163
0.982763
0.982422
0.988507
0.988857
0.980549
0.979956
0.988285
0.987783
0.9948
0.994566
0.991962
0.991939
0.998884
0.998889
0.999019
0.99907
0.999168
0.99917
0.99902
0.998589
0.998592
0.998524
0.998526
0.997961
0.998065
0.995815
0.996024
0.995157
0.994936
0.99779
0.997793
0.997991
0.998047
0.998143
0.996482
0.996321
0.996244
0.996306
0.996199
0.995989
0.995971
0.998095
0.998188
0.99799
0.997995
0.997998
0.996798
0.996796
0.99674
0.996291
0.996133
0.997073
0.997048
0.997715
0.997594
0.997888
0.997418
0.997543
0.996673
0.996827
0.995572
0.995638
0.995562
0.995745
0.995439
0.995505
0.995499
0.99568
0.995496
0.996271
0.996463
0.995221
0.995423
0.995265
0.994829
0.994577
0.995221
0.995446
0.997568
0.997561
0.997164
0.997312
0.997133
0.997282
0.996807
0.996635
0.996973
0.997279
0.997132
0.997682
0.997685
0.999206
0.999164
0.999381
0.999417
0.999426
0.999459
0.999461
0.999429
0.999386
0.999421
0.999246
0.999285
0.999164
0.999162
0.999065
0.999115
0.998482
0.998474
0.998434
0.998429
0.998356
0.998271
0.998966
0.998968
0.998735
0.998735
0.998273
0.998269
0.998263
0.998256
0.99871
0.998704
0.99836
0.998348
0.998465
0.998474
0.998216
0.998204
0.998303
0.998293
0.998498
0.998507
0.998166
0.998062
0.998029
0.998029
0.998879
0.998882
0.998545
0.998538
0.99861
0.998531
0.998595
0.998515
0.998809
0.998808
0.999366
0.999403
0.999473
0.999504
0.999511
0.999513
0.999415
0.999379
0.999141
0.999131
0.999252
0.999245
0.999108
0.999113
0.998997
0.998991
0.999189
0.999232
0.999106
0.999153
0.999001
0.998945
0.999046
0.998993
0.99905
0.998994
0.999095
0.999096
0.999429
0.999393
0.999467
0.999499
0.999346
0.999385
0.999725
0.999706
0.999686
0.999704
0.999693
0.999617
0.99964
0.999541
0.99954
0.999641
0.999641
0.999643
0.999589
0.999589
0.999903
0.99991
0.999839
0.999826
0.999837
0.999884
0.999893
0.999927
0.999926
0.999937
0.999932
0.999937
0.999941
0.999968
0.999971
0.999985
0.999982
1.00005
1.00005
1.00002
1.00002
0.999982