/*--------------------------------*- C++ -*----------------------------------*\
  =========                 |
  \\      /  F ield         | OpenFOAM: The Open Source CFD Toolbox
   \\    /   O peration     | Website:  https://openfoam.org
    \\  /    A nd           | Version:  7
     \\/     M anipulation  |
\*---------------------------------------------------------------------------*/
FoamFile
{
    version     2.0;
    format      ascii;
    class       volScalarField;
    location    "1740";
    object      T;
}
// * * * * * * * * * * * * * * * * * * * * * * * * * * * * * * * * * * * * * //

dimensions      [0 0 0 1 0 0 0];

internalField   nonuniform List<scalar> 
238806
(
0.0391504
0.0396409
0.0477135
0.0485205
0.0470508
0.0416494
0.0415387
0.0391935
0.0387468
0.0488916
0.049402
0.0458668
0.0594223
0.0600633
0.0619687
0.0597754
0.049819
0.0504937
0.0360405
0.0359841
0.0557291
0.056899
0.0599154
0.0604693
0.0618585
0.0487519
0.0496273
0.0498976
0.0517156
0.0513516
0.0361669
0.0359628
0.0553695
0.0537483
0.0512434
0.0499866
0.70547
0.706595
0.0480559
0.0474241
0.0483808
0.0499603
0.0377047
0.0375301
0.0362026
0.0362752
0.0630641
0.060836
0.0521946
0.0507124
0.0444892
0.0440946
0.0579359
0.0585835
0.450578
0.449404
0.0483416
0.047534
0.0475508
0.0460779
0.0467177
0.0472211
0.0468989
0.0471992
0.0463513
0.0363844
0.036436
0.0383427
0.0387068
0.0411897
0.0417771
0.0555967
0.0572734
0.0516232
0.0530783
0.0468164
0.0474583
0.051316
0.0500669
0.228682
0.228248
0.0495785
0.0481567
0.0399264
0.0397035
0.0442901
0.0450199
0.0524085
0.051609
0.0508379
0.051547
0.0452558
0.0459743
0.0383311
0.0385206
0.047016
0.0461827
0.0469883
0.0482046
0.0495516
0.0365258
0.038165
0.0384188
0.0387584
0.0386507
0.0679172
0.0694886
0.053602
0.0550449
0.0546387
0.0562954
0.0472895
0.0464919
0.0449789
0.0453681
0.0589147
0.0574261
0.71406
0.713757
0.714853
0.0602317
0.0623628
0.0405407
0.0407976
0.041183
0.0410766
0.0639631
0.0642443
0.0539858
0.0535677
0.0467219
0.0517236
0.0524782
0.0516996
0.045283
0.0444871
0.0384082
0.0381709
0.0578318
0.0591094
0.0584873
0.0577551
0.0458124
0.0373786
0.0376205
0.0374651
0.0376877
0.0388363
0.0385636
0.0402811
0.0406861
0.0428237
0.0432768
0.0670926
0.0689188
0.0569698
0.058401
0.0566118
0.0582982
0.0570185
0.0581845
0.0478022
0.0484406
0.0440626
0.0443956
0.0515418
0.0502697
0.205108
0.205503
0.70491
0.706034
0.0506289
0.0492589
0.102425
0.103053
0.103021
0.0401085
0.0403487
0.045799
0.046198
0.0667269
0.0667383
0.0534402
0.051415
0.0505066
0.0507587
0.0397998
0.0399379
0.038095
0.037888
0.0377525
0.037573
0.0400978
0.0403996
0.0475768
0.0465504
0.0463847
0.0535452
0.0533584
0.0474231
0.0478451
0.0362822
0.0361444
0.0376371
0.0379678
0.0379681
0.0382916
0.0429923
0.0437896
0.0412609
0.040844
0.0852184
0.0845694
0.0720791
0.0740183
0.0641853
0.0622764
0.0588528
0.0570637
0.0540315
0.0525859
0.0473138
0.0481702
0.045727
0.0450456
0.0452599
0.044943
0.0513166
0.0500514
0.15051
0.147135
0.321344
0.315812
0.314034
0.308472
0.5206
0.527425
0.0396218
0.0389088
0.0425657
0.0413983
0.0668852
0.0690021
0.116523
0.118392
0.0409983
0.041255
0.0446583
0.0442935
0.0459353
0.0467422
0.0504666
0.0514013
0.05933
0.0588571
0.0490289
0.0481238
0.0384279
0.0382159
0.0382597
0.0380456
0.0381679
0.0379493
0.0499033
0.049804
0.0406541
0.0402641
0.0476585
0.0481352
0.0561558
0.0578507
0.0451464
0.0541292
0.0430325
0.0436578
0.0425265
0.0363921
0.0365474
0.0368697
0.0370685
0.0380386
0.0378005
0.03987
0.0392989
0.0396371
0.039603
0.040909
0.04113
0.0737072
0.0748356
0.0672939
0.0661988
0.0733733
0.0752746
0.0684437
0.0704942
0.0601003
0.0620164
0.0580491
0.0599152
0.057678
0.0593652
0.0592141
0.059942
0.0501183
0.0512779
0.0469173
0.0472935
0.0458978
0.0465509
0.0585392
0.0582984
0.0528556
0.0526275
0.0531511
0.0544363
0.197742
0.194009
0.168032
0.164391
0.216033
0.220359
0.232745
0.233167
0.340422
0.339818
0.527607
0.52074
0.715746
0.0516967
0.0504191
0.0625476
0.0605377
0.43148
0.438353
0.0733079
0.071733
0.103649
0.104764
0.0415537
0.0420512
0.0407743
0.0406657
0.0454093
0.045026
0.0474571
0.0483999
0.0550775
0.0549251
0.0555394
0.0561806
0.0417767
0.0410657
0.0385002
0.0383486
0.0389456
0.0391561
0.0391294
0.0378957
0.0381081
0.0479996
0.0478966
0.0430979
0.042457
0.0409023
0.0405336
0.0500404
0.0512805
0.0606779
0.0423816
0.043198
0.0500496
0.048677
0.0465705
0.0456885
0.0458189
0.0464912
0.038938
0.0393525
0.0365906
0.0364401
0.0368893
0.0369674
0.0370343
0.0373111
0.0373214
0.037619
0.0473376
0.0463976
0.0445946
0.0437893
0.0391333
0.0392661
0.0387927
0.0389943
0.0407669
0.0407878
0.0414541
0.0418849
0.0438546
0.0446277
0.0825954
0.0833099
0.0649882
0.0636111
0.0747095
0.0765732
0.0696178
0.0716327
0.0651104
0.0672332
0.0619253
0.0640578
0.058794
0.0604775
0.058465
0.0577971
0.0511277
0.0522949
0.0463005
0.0459182
0.0499932
0.0488033
0.053964
0.0526168
0.0542119
0.0539828
0.0519201
0.179635
0.17631
0.150604
0.147244
0.175522
0.179323
0.187584
0.183563
0.315846
0.321415
0.298934
0.294347
0.328798
0.334273
0.632968
0.632533
0.359926
0.354378
0.044602
0.0440011
0.0448498
0.0641262
0.0649526
0.064197
0.0653378
0.064754
0.0640327
0.443753
0.442586
0.0937493
0.095444
0.101111
0.102118
0.103765
0.103829
0.0743772
0.0741073
0.0408255
0.0405142
0.0415634
0.0418988
0.0433784
0.0432667
0.0451572
0.0495427
0.0494406
0.0504824
0.0566161
0.0582581
0.0581487
0.0576611
0.0390129
0.0392158
0.0388863
0.0385773
0.0387683
0.0385217
0.0386736
0.0378361
0.03765
0.0520071
0.051909
0.04823
0.0491559
0.0462945
0.0471232
0.0406024
0.0410179
0.0486195
0.0474984
0.0526654
0.0516578
0.0523646
0.0596885
0.0551005
0.0549634
0.0556173
0.0562807
0.0524837
0.0465802
0.0404171
0.039868
0.03777
0.0381194
0.0366598
0.0368381
0.0370888
0.0367935
0.0363564
0.0365362
0.0373678
0.0371563
0.0455611
0.046449
0.0423273
0.0431158
0.0406893
0.0400785
0.0401883
0.0401607
0.0392797
0.0396551
0.0421428
0.0421347
0.0417824
0.0415582
0.0440417
0.0435845
0.0884912
0.0875744
0.0755522
0.0733286
0.0608917
0.0594768
0.0680684
0.0664763
0.0715289
0.0697563
0.0676782
0.0658267
0.0708272
0.0728051
0.0661973
0.0683042
0.0629826
0.065106
0.0572315
0.0557945
0.0599562
0.0616309
0.0545198
0.0541707
0.0559819
0.0550775
0.0521926
0.0533634
0.0493815
0.0482405
0.0502889
0.0506491
0.0447209
0.0446054
0.0479433
0.0487711
0.0496655
0.0507511
0.0525489
0.0539008
0.0557704
0.0571522
0.235068
0.239315
0.194001
0.197726
0.168032
0.164377
0.209404
0.209796
0.22055
0.216204
0.247382
0.251882
0.307507
0.308066
0.297003
0.296835
0.334861
0.329356
0.651798
0.6576
0.707448
0.708595
0.437384
0.436918
0.535398
0.535167
0.0491755
0.0507593
0.0395307
0.0397187
0.0680951
0.0690005
0.0521351
0.053765
0.0539992
0.0520767
0.0632149
0.0612251
0.418967
0.417873
0.668757
0.669994
0.127433
0.128075
0.111955
0.113723
0.112739
0.111369
0.104457
0.105234
0.104722
0.102902
0.0420473
0.042536
0.0406517
0.040201
0.039818
0.0394627
0.0418304
0.0413368
0.042748
0.0426332
0.0457566
0.044979
0.0474997
0.0485096
0.0694106
0.0692374
0.0530292
0.0539792
0.0536558
0.0559438
0.0584334
0.0434212
0.0435624
0.0395279
0.039775
0.0387535
0.0389597
0.0388321
0.0389816
0.0379514
0.0377538
0.0531329
0.0530348
0.0468822
0.0477103
0.0489261
0.0488254
0.0414625
0.0410545
0.0401931
0.0398214
0.0519066
0.0531371
0.0528912
0.0487514
0.0488951
0.0495893
0.0448455
0.0440586
0.0437353
0.0439814
0.0447324
0.0494753
0.0508956
0.0578657
0.0447722
0.0393846
0.0398614
0.0367304
0.0369108
0.0366882
0.036623
0.0367602
0.0370031
0.0449447
0.0450059
0.0457947
0.0446606
0.0454675
0.0409354
0.0403587
0.0398142
0.0404041
0.0395093
0.0389693
0.039465
0.039256
0.0401221
0.0406827
0.0432464
0.0430196
0.0414385
0.0414241
0.0424254
0.0431192
0.0768982
0.0758222
0.0821163
0.0830083
0.0834751
0.0830409
0.0741302
0.073103
0.0628294
0.0611675
0.0622097
0.0608061
0.0666918
0.0650802
0.0711528
0.0728976
0.0664757
0.0646015
0.0673044
0.0693867
0.0640416
0.0661678
0.0561117
0.0546715
0.0570366
0.0563922
0.0583615
0.059522
0.0492073
0.0501013
0.0491606
0.0503122
0.0488537
0.0494902
0.0465611
0.0466735
0.048054
0.0471217
0.0473594
0.049413
0.0481813
0.0552926
0.055349
0.0524604
0.0512066
0.0564979
0.0551065
0.0724583
0.0709523
0.235173
0.235281
0.205204
0.20911
0.202218
0.201714
0.157449
0.160946
0.179325
0.175507
0.187797
0.183758
0.315928
0.321539
0.268086
0.268402
0.262701
0.262392
0.290533
0.285901
0.289066
0.28437
0.316639
0.311523
0.317996
0.323379
0.489525
0.482973
0.638375
0.63205
0.668643
0.673885
0.706509
0.707642
0.709056
0.710237
0.44381
0.444064
0.713933
0.712512
0.713768
0.0521441
0.0516468
0.0394121
0.0399473
0.0405512
0.038204
0.0388559
0.0368405
0.0363135
0.0644874
0.0652692
0.0559059
0.054826
0.0546541
0.0531123
0.0460303
0.0467017
0.0474032
0.0466476
0.0921415
0.096097
0.497793
0.504311
0.439243
0.438105
0.491927
0.490711
0.60452
0.603989
0.107327
0.105006
0.0904777
0.0920941
0.109661
0.111494
0.115552
0.117449
0.108421
0.109718
0.103679
0.1037
0.104306
0.102095
0.102884
0.0451135
0.0444305
0.0410096
0.0413903
0.0404361
0.0401306
0.0402924
0.0413036
0.0410599
0.0408894
0.0430829
0.0426717
0.0454025
0.0455364
0.0442661
0.0436128
0.0494876
0.0485085
0.0669967
0.0666902
0.0516309
0.0525773
0.0548715
0.0527793
0.0442682
0.0445763
0.0393958
0.0391746
0.0393762
0.0394393
0.0388384
0.039113
0.0380423
0.0382692
0.0509309
0.050832
0.048587
0.0495144
0.0443097
0.0435514
0.0414552
0.0419121
0.0398839
0.0395265
0.0502952
0.0491159
0.0491813
0.0608614
0.0623097
0.0600183
0.0522397
0.0529382
0.0552565
0.0560825
0.056621
0.0585831
0.0443025
0.0431884
0.048773
0.0476265
0.0370418
0.0366942
0.0372586
0.0374815
0.0370567
0.0372795
0.0367939
0.0366043
0.0430162
0.0432617
0.0440219
0.0416124
0.0409555
0.0396597
0.0402307
0.0386229
0.0386698
0.0401634
0.0397636
0.0429036
0.0429003
0.0425577
0.0421138
0.0858166
0.0867736
0.0867227
0.0859374
0.0808752
0.0813556
0.0706844
0.0717478
0.0651703
0.0596217
0.0581977
0.0650884
0.0664481
0.0702026
0.0684028
0.0634183
0.0653118
0.0609638
0.0590617
0.0531804
0.052828
0.0612011
0.0623477
0.0564217
0.0573266
0.0525514
0.0534555
0.0491047
0.0482233
0.0499697
0.0506054
0.0490374
0.0488347
0.0438434
0.0437227
0.043723
0.0438375
0.0465519
0.0471105
0.0469953
0.0567213
0.0567644
0.0519226
0.0506523
0.0559847
0.0545874
0.239108
0.239217
0.239412
0.239516
0.213253
0.213293
0.201503
0.201526
0.15613
0.152992
0.160881
0.157377
0.179348
0.175513
0.204754
0.209048
0.211904
0.211752
0.251884
0.251897
0.272839
0.273161
0.248556
0.248234
0.340137
0.345655
0.297391
0.29787
0.303308
0.308197
0.284727
0.280044
0.288351
0.283642
0.337553
0.343136
0.31537
0.310092
0.323902
0.318476
0.38118
0.381603
0.63889
0.639355
0.674374
0.669109
0.706003
0.707131
0.687276
0.681968
0.524169
0.530654
0.444223
0.437665
0.535863
0.53563
0.57525
0.574903
0.042506
0.0416624
0.0415487
0.0496757
0.0512569
0.0426919
0.0436382
0.0421093
0.0407702
0.115049
0.11848
0.0395891
0.0403317
0.0700861
0.0710078
0.0661117
0.0669818
0.0511642
0.0528958
0.0497171
0.0507088
0.0501155
0.0495819
0.0813753
0.0787328
0.100464
0.100117
0.622898
0.627434
0.410119
0.409027
0.444912
0.446063
0.436958
0.4358
0.638389
0.637884
0.57064
0.569448
0.0713269
0.0697422
0.156282
0.155769
0.125201
0.124047
0.076451
0.0747323
0.0969161
0.0952535
0.114725
0.112988
0.107421
0.108749
0.107482
0.10623
0.103193
0.104325
0.105089
0.0749021
0.0411334
0.0416085
0.0394404
0.0397858
0.0420972
0.0424766
0.0429647
0.0423727
0.044775
0.0446508
0.0476326
0.0466996
0.0475333
0.046628
0.069067
0.0690469
0.0708
0.0639041
0.0645848
0.0487423
0.0496208
0.056695
0.0574194
0.0428442
0.0423517
0.0425326
0.0428511
0.0402764
0.0404583
0.0392635
0.0383387
0.0385796
0.0391693
0.039315
0.0495259
0.0503913
0.0515184
0.05116
0.0473548
0.0465286
0.0419442
0.0425052
0.0454522
0.0449971
0.0444532
0.048022
0.0470824
0.0508771
0.0496368
0.055434
0.0540829
0.0542863
0.0490856
0.0482706
0.049474
0.0508128
0.0514013
0.0537368
0.0545023
0.0573098
0.0592478
0.04545
0.0389982
0.039078
0.0376118
0.0375122
0.0371392
0.0369432
0.0371406
0.0371431
0.0417317
0.0415192
0.0436583
0.0442603
0.041613
0.0409777
0.0403563
0.0398094
0.0405286
0.0403108
0.0391319
0.039091
0.0422608
0.042487
0.082017
0.0830728
0.0782728
0.0791467
0.084086
0.0849207
0.0826882
0.0823574
0.0683819
0.0694474
0.068308
0.0672129
0.0624257
0.0640728
0.0635754
0.0621842
0.0630874
0.0611703
0.0583638
0.0586715
0.0607609
0.0616807
0.0546911
0.0537866
0.0533155
0.0544884
0.0494686
0.0491035
0.0511472
0.0517816
0.0476729
0.0478471
0.0446052
0.044727
0.0456789
0.0455557
0.0456903
0.0462639
0.0568174
0.0570519
0.0581888
0.0582098
0.0537612
0.053234
0.23496
0.234839
0.217304
0.217348
0.209304
0.205381
0.179416
0.175788
0.197738
0.197106
0.151047
0.150435
0.153924
0.154003
0.164497
0.168109
0.171754
0.171784
0.188072
0.184017
0.207997
0.203755
0.316754
0.322055
0.247401
0.24739
0.242661
0.247255
0.243003
0.242733
0.257036
0.256747
0.263023
0.319453
0.313964
0.308492
0.303114
0.296733
0.303013
0.307909
0.28509
0.280417
0.279679
0.279311
0.291569
0.29136
0.296599
0.301906
0.333419
0.328053
0.316041
0.310871
0.324427
0.318975
0.375547
0.369758
0.350792
0.350497
0.642515
0.648719
0.626678
0.633179
0.663667
0.663215
0.697921
0.701266
0.706991
0.70813
0.695585
0.699581
0.523966
0.530409
0.428407
0.428252
0.486077
0.486319
0.549843
0.550124
0.542196
0.542467
0.621217
0.621179
0.712173
0.712169
0.0435429
0.0425121
0.0477169
0.0482688
0.0418838
0.0426465
0.0450465
0.0459745
0.0405571
0.0408971
0.0417785
0.0566008
0.0559781
0.0353145
0.0349413
0.0680718
0.0698156
0.068949
0.0633313
0.0625553
0.0546895
0.0564598
0.045392
0.0454019
0.0448297
0.044471
0.0483946
0.0482174
0.0520713
0.0950059
0.0937704
0.0964685
0.0925311
0.502156
0.501074
0.643905
0.645259
0.471546
0.472435
0.426287
0.425296
0.451749
0.452911
0.633228
0.632467
0.575978
0.577165
0.0812869
0.0793239
0.0755738
0.0738954
0.152701
0.15318
0.146303
0.143742
0.135669
0.135396
0.1286
0.129001
0.0936288
0.0920404
0.114502
0.116429
0.119401
0.12116
0.106679
0.108031
0.11004
0.108749
0.102612
0.101677
0.0430103
0.0436104
0.0425734
0.0431362
0.0399364
0.0395568
0.0404902
0.0401177
0.0432884
0.0437281
0.0440549
0.0439391
0.0458662
0.045023
0.046598
0.0458024
0.0610223
0.0611351
0.0627877
0.0507733
0.0511427
0.0498915
0.0506418
0.0547067
0.0556007
0.043045
0.0437303
0.0396217
0.0400385
0.038665
0.0384117
0.0537151
0.0533597
0.050133
0.0504914
0.039621
0.0393321
0.0423256
0.0418844
0.0410159
0.0414548
0.0527992
0.0542923
0.0535897
0.0491077
0.0496831
0.0471046
0.0463064
0.0512879
0.0507226
0.0500827
0.0480348
0.0562675
0.0561036
0.0854045
0.084998
0.0473766
0.0464109
0.0498399
0.0515833
0.0502393
0.0566843
0.0576159
0.0582856
0.0548911
0.0555628
0.0386379
0.0382947
0.0384294
0.038626
0.0372716
0.0371837
0.0361724
0.0360214
0.0361365
0.0378105
0.0378175
0.037196
0.0373016
0.0410417
0.0408495
0.0434032
0.0428483
0.0430369
0.0423091
0.0404565
0.0410903
0.0397606
0.0399742
0.0800275
0.0811368
0.0877923
0.0894721
0.0800579
0.0810129
0.0757278
0.0765867
0.0765377
0.0783786
0.0783543
0.0776587
0.0703051
0.0711314
0.0690987
0.0695393
0.0637298
0.0653597
0.0572884
0.05695
0.0601707
0.0592582
0.0597552
0.0609099
0.052278
0.0513749
0.054494
0.0556664
0.0483494
0.0479788
0.04764
0.047742
0.0455504
0.0456691
0.0448471
0.0454314
0.0553798
0.055611
0.143793
0.143903
0.221487
0.221486
0.224248
0.228463
0.205081
0.208981
0.193967
0.197679
0.175654
0.179422
0.224702
0.225168
0.178682
0.182576
0.158246
0.158584
0.168663
0.164582
0.160845
0.157343
0.179478
0.175598
0.168065
0.164442
0.171743
0.188423
0.184361
0.192169
0.183186
0.187108
0.203337
0.20752
0.342958
0.348552
0.332421
0.326881
0.284441
0.284423
0.256056
0.255893
0.230883
0.230454
0.233594
0.229125
0.264434
0.264808
0.252314
0.252027
0.27147
0.271202
0.324275
0.329709
0.302629
0.301948
0.281211
0.280803
0.29407
0.298757
0.28401
0.288717
0.276383
0.276133
0.302201
0.302464
0.327632
0.333006
0.320706
0.321304
0.307258
0.312623
0.340997
0.33542
0.447157
0.453694
0.357301
0.351718
0.362279
0.36252
0.351031
0.510428
0.516982
0.677204
0.671464
0.637225
0.630941
0.675461
0.670243
0.675164
0.66988
0.685175
0.680279
0.701751
0.698386
0.705413
0.704968
0.700262
0.696208
0.708685
0.709858
0.359943
0.354362
0.483792
0.48402
0.514411
0.514612
0.50021
0.506982
0.556248
0.556623
0.54273
0.542985
0.60772
0.60744
0.676847
0.676828
0.714989
0.715711
0.07552
0.0750145
0.0500527
0.0487216
0.0494472
0.0464254
0.0470029
0.0453391
0.0457967
0.0462302
0.0434044
0.0387371
0.0683181
0.0696572
0.0471601
0.0481194
0.0357115
0.0355622
0.0411049
0.0403686
0.0671695
0.0663748
0.0527639
0.0515892
0.058049
0.0563052
0.0449361
0.0458782
0.0447211
0.0465327
0.0459085
0.0456706
0.0466549
0.0573016
0.0557476
0.0555725
0.117319
0.117568
0.083255
0.0806527
0.153856
0.150038
0.393226
0.393349
0.564488
0.557702
0.642947
0.644301
0.485393
0.478906
0.375509
0.376249
0.432102
0.433102
0.430192
0.429048
0.471188
0.469989
0.509767
0.508593
0.667454
0.668713
0.596178
0.594976
0.676755
0.680754
0.0704887
0.0689128
0.0722678
0.0706809
0.125956
0.128506
0.135893
0.13894
0.137739
0.13905
0.137233
0.126914
0.12648
0.082966
0.0848719
0.102832
0.104471
0.113386
0.115342
0.118184
0.119995
0.118697
0.11713
0.0995558
0.100793
0.108004
0.109313
0.106207
0.107414
0.076441
0.0763777
0.0423568
0.0429794
0.04312
0.0437701
0.0401998
0.040345
0.0397679
0.0394378
0.0439504
0.0444192
0.0421705
0.0420552
0.0457849
0.0466224
0.0719499
0.07169
0.0611559
0.0519896
0.0390608
0.0388565
0.0522356
0.052593
0.0390657
0.0423896
0.0428913
0.0415087
0.0419395
0.0467238
0.0461777
0.0474705
0.0464558
0.0457554
0.0457318
0.0526025
0.0546139
0.0542856
0.0628565
0.0700823
0.0697445
0.0465633
0.0455307
0.0509151
0.0502141
0.0545785
0.0530437
0.0601273
0.0398131
0.0404285
0.0415981
0.0387656
0.0386668
0.0385388
0.0390099
0.0381093
0.0384295
0.0365932
0.0365926
0.0361406
0.0362205
0.0381962
0.0382112
0.0376267
0.0375148
0.0417801
0.0413508
0.0424727
0.0422412
0.0415701
0.0422573
0.0715463
0.0726134
0.0760039
0.0772158
0.0822957
0.0841821
0.0860221
0.0812747
0.0804835
0.081942
0.0839883
0.0819936
0.0798887
0.074449
0.0727629
0.0750826
0.071868
0.0530172
0.052384
0.0558951
0.0555489
0.0627069
0.0638407
0.0511589
0.0502589
0.0487839
0.0488742
0.0461744
0.0459051
0.154335
0.157096
0.11553
0.115791
0.293542
0.288609
0.173089
0.169428
0.1762
0.179593
0.217122
0.216981
0.193805
0.197495
0.205353
0.20927
0.201449
0.163941
0.161049
0.216511
0.215999
0.221302
0.225633
0.177721
0.174364
0.15687
0.153743
0.153899
0.154452
0.154101
0.1543
0.150512
0.147136
0.153893
0.171751
0.171778
0.16804
0.164409
0.188836
0.18478
0.191654
0.191883
0.221264
0.216867
0.207653
0.203449
0.332742
0.338134
0.326954
0.332482
0.28899
0.293625
0.284416
0.234202
0.234197
0.26775
0.272494
0.24647
0.246862
0.23852
0.23893
0.238418
0.23816
0.249598
0.249239
0.257333
0.252611
0.266613
0.266332
0.27173
0.341484
0.335947
0.31364
0.319179
0.285473
0.290096
0.308434
0.303593
0.289404
0.289738
0.282241
0.277548
0.286416
0.286203
0.291698
0.33803
0.343607
0.31716
0.312067
0.321854
0.313054
0.307626
0.342102
0.336513
0.329899
0.355088
0.355073
0.357609
0.352006
0.356907
0.357064
0.362622
0.356771
0.482561
0.489106
0.594844
0.595623
0.666775
0.665273
0.669837
0.637814
0.631517
0.639587
0.645795
0.658043
0.652237
0.664454
0.664082
0.685527
0.680582
0.702204
0.698814
0.704498
0.704
0.680795
0.686169
0.69993
0.6959
0.704994
0.707913
0.39507
0.401069
0.415639
0.421934
0.489743
0.490012
0.47028
0.470372
0.440682
0.43464
0.493219
0.493073
0.514061
0.513972
0.551057
0.544376
0.556969
0.557283
0.568644
0.568265
0.607152
0.606926
0.713652
0.713824
0.714978
0.715274
0.715635
0.0822997
0.0840949
0.0366952
0.0372133
0.0470917
0.0462373
0.0474309
0.0503671
0.0469996
0.0467184
0.0433213
0.044731
0.0456647
0.0447099
0.11515
0.118552
0.0542654
0.0548932
0.0400823
0.0408782
0.0361381
0.036088
0.0351988
0.0348595
0.0366876
0.0363868
0.0395035
0.0398409
0.0629126
0.0608461
0.0538062
0.0527133
0.0582108
0.0590707
0.0598777
0.045276
0.0465129
0.046177
0.0415804
0.0406372
0.0475403
0.0469313
0.0487896
0.0384749
0.0377706
0.0376545
0.0983308
0.0973852
0.0962523
0.0844262
0.0882503
0.195462
0.1946
0.254
0.254326
0.445899
0.44521
0.565341
0.558534
0.565351
0.55857
0.642018
0.643372
0.608791
0.614709
0.478014
0.484501
0.380376
0.379409
0.438932
0.43994
0.443679
0.444746
0.423462
0.42233
0.467854
0.469023
0.485006
0.483792
0.63124
0.630112
0.662159
0.665205
0.671334
0.672548
0.58649
0.585416
0.59878
0.597948
0.642758
0.648099
0.692269
0.693496
0.073819
0.0721195
0.0749259
0.0765908
0.127662
0.125082
0.139597
0.136577
0.120575
0.119452
0.135501
0.136267
0.125924
0.125255
0.0961689
0.0985133
0.0924525
0.0911344
0.112219
0.114203
0.112641
0.110841
0.118853
0.120636
0.115616
0.114154
0.100564
0.0994825
0.105792
0.107173
0.105509
0.106736
0.108669
0.10996
0.0784395
0.0797836
0.0416672
0.0414822
0.0420454
0.0436891
0.0443231
0.0406135
0.0407958
0.0436056
0.0726219
0.0762581
0.0751687
0.0396012
0.0394951
0.0393571
0.0429951
0.0437067
0.0509005
0.0499521
0.0438604
0.0446887
0.0450854
0.0485793
0.0568694
0.0721714
0.0720896
0.0622391
0.0642123
0.0645588
0.0474291
0.0484718
0.0539197
0.053227
0.0417733
0.0423
0.0427916
0.0395709
0.0397719
0.0379113
0.0374428
0.0383207
0.0381349
0.0385137
0.038873
0.0368547
0.036852
0.0364671
0.036391
0.0383693
0.0382482
0.0374605
0.0374614
0.0420719
0.0425439
0.0789662
0.077949
0.0784712
0.0803855
0.0849599
0.0839557
0.0774265
0.0797379
0.080326
0.0806004
0.0704961
0.0536745
0.0543076
0.0518884
0.0515322
0.0587224
0.0578153
0.0465773
0.0467206
0.10294
0.101275
0.0838339
0.0842707
0.11822
0.118303
0.279326
0.279443
0.279538
0.279617
0.169143
0.165752
0.194007
0.197744
0.196534
0.192769
0.165277
0.162372
0.225584
0.225639
0.213183
0.217228
0.201369
0.201252
0.205292
0.209203
0.164325
0.161459
0.212261
0.211725
0.220815
0.220326
0.195609
0.191884
0.158463
0.155328
0.157659
0.154529
0.154942
0.151654
0.163858
0.167997
0.149813
0.149194
0.15391
0.153977
0.147234
0.1506
0.175543
0.179398
0.192518
0.192925
0.187296
0.183317
0.216621
0.221003
0.20781
0.203587
0.34268
0.348278
0.343747
0.349317
0.327065
0.332568
0.289354
0.28938
0.269985
0.269894
0.238545
0.238551
0.246195
0.250694
0.240476
0.240825
0.242259
0.241858
0.230015
0.229571
0.226667
0.226325
0.269146
0.269516
0.258633
0.258986
0.25764
0.257958
0.247927
0.247634
0.271986
0.272246
0.261802
0.261514
0.318523
0.313395
0.335672
0.341193
0.313355
0.318952
0.282826
0.282472
0.293439
0.298197
0.303511
0.308385
0.307536
0.302643
0.282548
0.277861
0.28136
0.281131
0.337041
0.342629
0.317606
0.312523
0.325524
0.320094
0.313514
0.308014
0.330988
0.330444
0.447036
0.453596
0.380006
0.385851
0.362861
0.363209
0.368282
0.36806
0.356591
0.356321
0.509737
0.516291
0.608662
0.615126
0.69543
0.696359
0.652737
0.646462
0.645163
0.645667
0.650029
0.643993
0.647672
0.641582
0.646222
0.639975
0.658468
0.652676
0.669525
0.674804
0.704321
0.705449
0.702628
0.699211
0.686667
0.681257
0.700579
0.696507
0.709739
0.710938
0.710349
0.711566
0.383413
0.383473
0.40113
0.395134
0.422149
0.415912
0.490246
0.490467
0.45097
0.450849
0.440346
0.434479
0.50018
0.500143
0.493401
0.486617
0.52797
0.521015
0.513878
0.51378
0.549542
0.549223
0.583052
0.582067
0.614249
0.614389
0.666111
0.660082
0.651543
0.651527
0.703493
0.703572
0.713581
0.0859422
0.0877452
0.0717142
0.0738426
0.0377919
0.0384135
0.0524761
0.052258
0.044132
0.0453019
0.0482207
0.0488365
0.0423934
0.0420696
0.0413741
0.0415481
0.0441546
0.0433542
0.0387104
0.0378554
0.0812376
0.0823591
0.0722713
0.0711969
0.0538177
0.0527497
0.0476025
0.0488904
0.0403364
0.0395711
0.0365276
0.0365654
0.0366218
0.036396
0.0351471
0.0348484
0.0369658
0.0374575
0.0350805
0.0353137
0.0387551
0.0389153
0.0577642
0.0591224
0.0586059
0.0537955
0.0572491
0.0554814
0.0501857
0.0485222
0.045021
0.0441585
0.0434664
0.0426175
0.042011
0.0433657
0.0546728
0.053939
0.0559265
0.043083
0.0430177
0.0504474
0.0499309
0.101656
0.0999492
0.0994539
0.0978674
0.0840984
0.0859812
0.0971193
0.0932312
0.11283
0.112552
0.151334
0.148527
0.124024
0.124786
0.439035
0.432157
0.427849
0.420839
0.516083
0.50912
0.520595
0.527605
0.628178
0.623644
0.641493
0.640535
0.620376
0.625737
0.454787
0.448382
0.391265
0.391897
0.352353
0.353277
0.400036
0.399008
0.498645
0.49274
0.43408
0.427254
0.424582
0.425692
0.416771
0.415656
0.485266
0.486419
0.462106
0.460949
0.478093
0.476884
0.540315
0.539126
0.615668
0.614652
0.666546
0.663552
0.569774
0.570837
0.580104
0.57898
0.592733
0.591746
0.605585
0.653588
0.658706
0.691278
0.692493
0.0729596
0.0746483
0.155228
0.154659
0.113039
0.110636
0.128118
0.125161
0.152976
0.15597
0.116086
0.114914
0.120573
0.119426
0.13366
0.134633
0.13263
0.132039
0.131499
0.131388
0.12526
0.125484
0.0958231
0.098193
0.0940963
0.092861
0.100781
0.102648
0.10697
0.105403
0.106154
0.107882
0.117405
0.119244
0.12012
0.121834
0.11387
0.115349
0.111291
0.112665
0.101906
0.100698
0.104101
0.105369
0.107164
0.105946
0.0833529
0.0811492
0.0769148
0.0425439
0.0420728
0.0757445
0.0770345
0.0512907
0.0522302
0.0439516
0.0432833
0.039077
0.0598429
0.0577174
0.0546246
0.0492897
0.0482197
0.045874
0.0794518
0.0770944
0.0726418
0.0705827
0.0651318
0.0677517
0.0484059
0.0476791
0.0410725
0.0416603
0.0405351
0.0392478
0.0382898
0.0384404
0.03898
0.0393934
0.0378201
0.0381964
0.0370022
0.0369044
0.0363569
0.0363648
0.0378643
0.0379812
0.0747812
0.0737658
0.0791774
0.0780152
0.0790379
0.0784008
0.0550137
0.055649
0.0998499
0.101575
0.0681955
0.0666171
0.0972934
0.0947267
0.141455
0.138504
0.140481
0.140605
0.304492
0.304736
0.284788
0.284902
0.247969
0.252376
0.224064
0.22838
0.162422
0.209389
0.209231
0.21737
0.217369
0.225642
0.229882
0.163884
0.160913
0.168183
0.167708
0.162647
0.162823
0.229815
0.229874
0.221412
0.221461
0.197607
0.193907
0.185997
0.189535
0.16229
0.159281
0.208062
0.2075
0.217023
0.222706
0.226972
0.191333
0.195079
0.159266
0.156127
0.167195
0.163972
0.16127
0.161819
0.155475
0.152293
0.16391
0.168188
0.151421
0.148106
0.160829
0.157375
0.150481
0.147102
0.218129
0.218519
0.20126
0.197067
0.200211
0.196022
0.199741
0.19558
0.187205
0.183246
0.195118
0.199202
0.20821
0.203951
0.212081
0.320646
0.315065
0.343434
0.349013
0.343615
0.349188
0.30316
0.302181
0.306127
0.294353
0.294425
0.27476
0.274687
0.234046
0.234125
0.26425
0.26398
0.247276
0.247349
0.232738
0.232414
0.2446
0.249139
0.234869
0.235279
0.243062
0.243459
0.234022
0.234448
0.229386
0.22916
0.273864
0.274232
0.253923
0.254279
0.252919
0.253241
0.247354
0.272523
0.267768
0.266892
0.262093
0.339582
0.34513
0.335408
0.340908
0.324121
0.329503
0.299034
0.303492
0.287357
0.287747
0.291125
0.286394
0.298508
0.293771
0.29783
0.293073
0.286886
0.287207
0.296009
0.299185
0.295299
0.326091
0.331529
0.344456
0.338887
0.322348
0.322782
0.314668
0.309197
0.335973
0.341558
0.366769
0.366781
0.379041
0.384743
0.364022
0.358323
0.373896
0.377736
0.37303
0.368658
0.351463
0.351246
0.415832
0.42214
0.438688
0.432086
0.507478
0.500935
0.525407
0.524824
0.604382
0.610685
0.678341
0.67456
0.675028
0.640401
0.633953
0.639759
0.633349
0.651351
0.651899
0.643376
0.649359
0.633447
0.626549
0.646678
0.640439
0.658872
0.65312
0.700192
0.696869
0.703473
0.702913
0.687789
0.682516
0.686977
0.681629
0.691373
0.691103
0.708295
0.709458
0.709407
0.710597
0.710053
0.711261
0.354618
0.354634
0.395002
0.400999
0.366676
0.366577
0.483566
0.483329
0.437989
0.437853
0.450841
0.4603
0.466842
0.507163
0.507213
0.486744
0.49346
0.520878
0.527789
0.542961
0.536511
0.569654
0.5691
0.591504
0.592313
0.614598
0.614823
0.663743
0.663946
0.712503
0.712341
0.638474
0.638426
0.698793
0.698887
0.129902
0.127455
0.0491226
0.0483402
0.0496502
0.0669343
0.0693516
0.039108
0.0384239
0.0421395
0.0431155
0.0427702
0.0416951
0.0464546
0.0454002
0.048104
0.0480196
0.0484712
0.0490496
0.0472643
0.0408207
0.123295
0.12639
0.0759087
0.076166
0.0677584
0.0663816
0.068906
0.0684893
0.0448295
0.0458259
0.0504234
0.0517024
0.0506245
0.0496739
0.0465806
0.0478486
0.0395658
0.0403342
0.0411593
0.0370172
0.0370647
0.0349187
0.0348619
0.0362366
0.0358331
0.0354742
0.0377916
0.0380492
0.038482
0.0370423
0.0375652
0.0362034
0.0359223
0.0364341
0.035957
0.0692704
0.0693591
0.0595904
0.0614205
0.0567017
0.0572382
0.0558876
0.0540819
0.0550211
0.0513223
0.0535309
0.0470883
0.0460522
0.0481151
0.0438777
0.0556006
0.0578835
0.0754537
0.0736297
0.0416909
0.0454858
0.0436827
0.124997
0.125913
0.10235
0.100651
0.0966419
0.0958497
0.0979323
0.0855463
0.0847883
0.104185
0.10554
0.101067
0.332936
0.33846
0.148185
0.150983
0.128371
0.127659
0.265392
0.259519
0.369199
0.369747
0.413861
0.413937
0.498548
0.505608
0.508043
0.515012
0.550018
0.543129
0.568809
0.575466
0.641119
0.642473
0.617814
0.611901
0.626748
0.621387
0.512108
0.518708
0.467674
0.47415
0.40213
0.408059
0.390735
0.369181
0.369949
0.385137
0.384218
0.378447
0.40351
0.402441
0.443747
0.444693
0.440923
0.431327
0.432451
0.474777
0.475959
0.486222
0.487438
0.515558
0.516747
0.587733
0.586616
0.658496
0.657229
0.639356
0.634174
0.662649
0.661317
0.673879
0.675083
0.531055
0.529969
0.587612
0.581255
0.599828
0.593821
0.683679
0.684841
0.681726
0.677696
0.0809535
0.0828644
0.0774231
0.0755875
0.139651
0.139733
0.151597
0.152168
0.109295
0.107006
0.108282
0.105977
0.147352
0.150616
0.152249
0.15527
0.113924
0.112733
0.118304
0.117146
0.129626
0.128629
0.13377
0.132982
0.137909
0.138211
0.133576
0.133408
0.127492
0.127451
0.123748
0.123753
0.0702928
0.068677
0.0758491
0.0775573
0.104863
0.10701
0.0873523
0.0888975
0.103986
0.102153
0.108103
0.106571
0.109095
0.107401
0.110686
0.11228
0.115489
0.117139
0.119825
0.12156
0.110666
0.112063
0.114085
0.115553
0.0972359
0.0983688
0.102077
0.103403
0.106134
0.10489
0.0783221
0.0780278
0.0786407
0.0794461
0.0758137
0.0767912
0.0773849
0.0786089
0.0609463
0.061909
0.0513562
0.0504182
0.0407467
0.0408434
0.0411524
0.0396559
0.0393161
0.0565682
0.0587903
0.0534245
0.0538083
0.0500342
0.0490175
0.0741171
0.0738263
0.0744918
0.0753192
0.0662515
0.0684275
0.0672917
0.041066
0.0402585
0.0375852
0.0374042
0.0379965
0.0378803
0.0385889
0.0366374
0.0367252
0.0769696
0.0760189
0.09832
0.100124
0.0695069
0.0679548
0.0979253