/*--------------------------------*- C++ -*----------------------------------*\
  =========                 |
  \\      /  F ield         | OpenFOAM: The Open Source CFD Toolbox
   \\    /   O peration     | Website:  https://openfoam.org
    \\  /    A nd           | Version:  7
     \\/     M anipulation  |
\*---------------------------------------------------------------------------*/
FoamFile
{
    version     2.0;
    format      ascii;
    class       volScalarField;
    location    "420";
    object      T;
}
// * * * * * * * * * * * * * * * * * * * * * * * * * * * * * * * * * * * * * //

dimensions      [0 0 0 1 0 0 0];

internalField   nonuniform List<scalar> 
238806
(
0.673981
0.70011
0.193926
0.206916
0.200979
0.663027
0.618855
0.746863
0.735639
0.398992
0.444803
0.220021
0.689434
0.713056
0.0346632
0.0484058
0.353712
0.384699
0.7598
0.732443
0.72948
0.722255
0.127983
0.173638
0.133917
0.237429
0.266592
0.207521
0.203058
0.110027
0.684444
0.672882
0.511442
0.558714
0.620111
0.622341
-2.83412e-10
-1.64997e-10
0.459683
0.525229
0.504935
0.176699
0.633256
0.63316
0.739166
0.758008
0.310434
0.352843
0.600082
0.637887
0.702597
0.670618
0.696902
0.720181
0.0177436
0.0166275
0.373699
0.355842
0.426432
0.318886
0.366209
0.317103
0.5085
0.552529
0.575802
0.690675
0.742505
0.725204
0.660795
0.741528
0.75052
0.600069
0.560433
0.654361
0.619141
0.716429
0.730022
0.623769
0.626454
0.321724
0.322997
0.580593
0.626695
0.667937
0.719577
0.725169
0.730056
0.194817
0.176552
0.212813
0.21355
0.435551
0.458313
0.665874
0.552388
0.605587
0.607613
0.482415
0.41776
0.152765
0.756723
0.780734
0.774117
0.706589
0.665417
0.693961
0.676532
0.678996
0.649559
0.580919
0.53736
0.727995
0.742569
0.664788
0.694241
0.66207
0.669118
-9.35186e-11
-4.27069e-12
-2.79367e-11
-0.00997035
-0.0224078
0.713129
0.667519
0.667216
0.621919
0.112989
0.01516
0.227374
0.167684
0.493938
0.313427
0.259256
0.153543
0.270643
0.388093
0.727066
0.726331
0.018043
0.0766798
0.130306
0.111303
0.540083
0.540068
0.407827
0.784521
0.763418
0.777828
0.776876
0.778465
0.767657
0.765319
0.773599
0.632996
0.605552
0.702934
0.681198
0.61699
0.580839
0.72801
0.723453
0.709152
0.725811
0.725775
0.756694
0.662056
0.667209
0.358525
0.369332
1.38753e-10
5.17521e-11
0.600483
0.641577
0.00204218
0.00376594
-0.00199108
0.715771
0.667379
0.679345
0.711829
0.0828242
-0.000343704
0.127748
0.256695
0.25432
0.304405
0.315559
0.261295
0.663227
0.663801
0.713458
0.713655
0.486127
0.376619
0.383237
0.356666
0.436743
0.149513
0.0815442
0.214855
0.137488
0.653229
0.724428
0.697965
0.620837
0.71259
0.642361
0.708527
0.714792
0.771192
0.776248
0.227693
0.199773
0.588054
0.5577
0.543578
0.58044
0.402784
0.461267
0.635385
0.6677
0.741158
0.732322
0.735884
0.73135
0.752354
0.722107
0.635021
0.638175
0.408867
0.416546
0.0962962
0.104506
0.0963652
0.103736
0.00140344
0.0011484
0.739747
0.734195
0.333654
0.329785
-0.00588677
-0.00783394
0.395721
0.393043
0.710752
0.673384
0.722749
0.689752
0.737443
0.733402
0.633498
0.646458
0.41348
0.366433
0.331094
0.328136
0.429222
0.430213
0.543994
0.542901
0.710887
0.712671
0.614822
0.599528
0.699939
0.689737
0.476934
0.510194
0.333762
0.297556
0.49732
0.209689
0.216968
0.223136
0.211913
0.721091
0.649833
0.782331
0.746596
0.76964
0.783406
0.746079
0.742592
0.662667
0.640646
0.701849
0.747228
0.489131
0.508357
0.327578
0.296706
0.598695
0.570008
0.544653
0.507203
0.540921
0.496276
0.489662
0.435547
0.631698
0.598519
0.654846
0.673481
0.718702
0.696039
0.654413
0.680083
0.723891
0.733488
0.635406
0.616519
0.656882
0.631659
0.745908
0.73989
0.0357211
0.0365391
0.369642
0.377741
0.242255
0.232688
0.31087
0.309254
0.0566494
0.0535906
0.00119859
0.00146373
-2.69329e-11
0.617573
0.656273
0.0410974
0.0892645
0.00285937
0.00239901
0.708309
0.713732
0.0501309
0.0475534
0.515585
0.383762
0.670101
0.62597
0.717488
0.684647
0.737508
0.723447
0.0713076
0.138158
0.161146
0.114835
0.254656
0.2451
0.243854
0.269754
0.687996
0.680721
0.716724
0.63273
0.631736
0.621565
0.60359
0.517098
0.608236
0.370189
0.499533
0.130103
0.158009
0.0501309
0.535706
0.559655
0.266963
0.338033
0.171294
0.176401
0.265079
0.19139
0.612465
0.524959
0.410457
0.530166
0.696882
0.744698
0.659938
0.561798
0.67939
0.586714
0.69707
0.689397
0.673786
0.661241
0.664788
0.70392
0.729854
0.771782
0.638213
0.656312
0.773154
0.773163
0.766626
0.769266
0.23855
0.266601
0.705902
0.716443
0.607787
0.580538
0.56138
0.526654
0.477197
0.43161
0.38677
0.342879
0.644623
0.614007
0.680099
0.659151
0.723857
0.704216
0.686808
0.659404
0.738534
0.746219
0.61855
0.621141
0.651654
0.628128
0.751628
0.310008
0.320517
0.417279
0.424565
0.34048
0.330653
0.352594
0.361468
0.0975867
0.089803
0.133383
0.142598
0.0634683
0.0584035
5.57101e-06
2.90529e-06
0.0345044
0.0378995
0.341705
0.395884
0.378918
0.478434
0.506664
-0.0198395
0.00386422
0.0433899
0.0131594
0.0202322
0.0189522
0.616293
0.617175
0.105814
0.109112
-0.00305223
-0.00133099
0.0143786
-0.00740291
0.33301
0.491369
0.741987
0.742004
0.650818
0.61266
0.740589
0.67445
0.695572
0.681555
0.215426
0.205692
0.171887
0.0834596
0.305293
0.295642
0.293655
0.668215
0.559147
0.752728
0.727199
0.755651
0.756099
0.608423
0.595282
0.650969
0.645628
0.629043
0.625173
0.633717
0.646816
0.534217
0.58465
0.124263
0.348101
0.384816
0.26355
0.0315517
0.111823
0.144569
0.0846893
0.261826
0.300961
0.567965
0.544222
0.561347
0.453532
0.719712
0.65064
0.755213
0.755539
0.775391
0.72595
0.755832
0.784139
0.719748
0.723386
0.737037
0.738768
0.737035
0.741734
0.659204
0.639473
0.779344
0.754626
0.651791
0.635434
0.7412
0.69668
0.772357
0.760925
0.314557
0.29581
0.0513301
0.111297
0.69483
0.711878
0.671554
0.690594
0.625224
0.649597
0.593248
0.622522
0.575776
0.54344
0.502833
0.459463
0.418213
0.372602
0.672269
0.696443
0.655834
0.627542
0.64856
0.63086
0.72486
0.714673
0.727366
0.710866
0.674628
0.70445
0.641573
0.66288
0.683036
0.647424
0.768174
0.765851
0.761387
0.756952
0.617747
0.615257
0.733608
0.727036
0.000526456
0.000395922
0.00950886
0.00966775
0.380619
0.38826
0.348021
0.358437
0.236109
0.245466
0.0989991
0.093327
0.0699144
0.0507259
0.110887
0.104108
0.0616552
0.0669243
2.63589e-07
1.88868e-07
-4.15032e-10
-2.39507e-10
0.00770017
0.00785401
0.000786181
0.000869355
0.246748
0.19361
0.363305
0.225543
0.401793
0.430266
0.558074
0.51536
0.401829
0.443899
0.111476
0.175421
0.0336847
0.0341312
-1.6993e-08
-1.21215e-08
0.326777
0.269591
0.442009
0.440606
-0.00252884
-0.00252651
-0.00223591
-0.00136645
-0.00162056
-0.00151127
0.532397
0.424058
0.576113
0.571763
0.73615
0.729231
0.708834
0.71225
0.654122
0.614094
0.696376
0.686902
0.661592
0.677794
0.0665569
-0.00843241
0.536286
0.560917
0.425003
0.350561
0.294122
0.244777
0.220195
0.669426
0.569177
0.456871
0.470036
0.751301
0.728021
0.725826
0.726452
0.605282
0.593061
0.699478
0.692238
0.618129
0.601564
0.723038
0.710916
0.622181
0.614266
0.228491
0.190016
0.230197
0.165131
0.45444
0.489997
0.309566
0.201406
0.393358
0.586963
0.61039
0.366544
0.310109
0.056796
0.20991
0.626854
0.645541
0.528144
0.407211
0.74402
0.694415
0.63796
0.531072
0.741511
0.736674
0.743231
0.720587
0.683866
0.676058
0.661439
0.700493
0.696624
0.745916
0.749049
0.76606
0.721698
0.70306
0.7281
0.730293
0.68844
0.65384
0.636868
0.757431
0.762763
0.47092
0.449644
0.330957
0.353855
0.129812
0.0880996
0.297096
0.259659
0.639244
0.665468
0.699687
0.714468
0.665449
0.686157
0.656017
0.632986
0.579009
0.610396
0.525385
0.484943
0.448894
0.402488
0.661744
0.688482
0.686501
0.665298
0.725746
0.72355
0.735938
0.735934
0.712146
0.686347
0.70212
0.720968
0.628022
0.635226
0.758471
0.744613
0.761298
0.711133
0.718135
0.612667
0.615991
0.724951
0.73166
0.704211
0.711298
0.68338
0.680413
-0.000730662
-0.000986869
-0.00234913
-0.00222758
0.394202
0.388849
0.388716
0.379196
0.330686
0.340022
0.367946
0.37696
0.0882088
0.0811614
0.100184
0.0741648
0.181273
0.171532
0.123381
0.131807
0.170093
0.180261
0.118976
0.127212
0.0743666
0.0687857
0.000216717
0.000269791
8.67595e-07
1.23688e-06
9.7469e-08
6.99575e-08
3.3383e-12
3.53457e-12
2.30523e-08
1.30203e-08
0.00673871
0.00663977
1.89257e-11
2.33799e-11
1.10848e-11
0.409192
0.352542
0.508577
0.530548
0.516764
0.68507
0.68313
0.40506
0.412763
0.378972
0.411575
0.624376
0.649304
0.541554
0.579631
0.219763
0.175473
0.206926
0.231734
0.605368
0.596761
0.00110993
0.000902787
0.023193
0.0236534
0.00749167
0.00704422
1.59197e-06
1.83855e-07
0.615816
0.622164
0.61258
0.614779
0.513829
0.512574
0.438705
0.436316
0.0442318
0.0431456
0.0019273
0.0177471
0.00698831
0.0194412
0.0206085
0.536944
0.514651
0.497836
0.332787
0.670342
0.661405
0.633517
0.737188
0.742881
0.713598
0.744311
0.735682
0.608782
0.641054
0.676508
0.719208
0.62666
0.609069
0.223353
0.164418
0.587839
0.605185
0.289466
0.373653
0.268619
0.196626
0.567822
0.67112
0.31106
0.266537
0.624045
0.619304
0.755089
0.754521
0.61159
0.597425
0.685227
0.678451
0.575371
0.650856
0.660103
0.674779
0.681209
0.673094
0.242322
0.306716
0.202558
0.0870962
0.039529
0.0192779
0.502901
0.532905
0.406929
0.433073
0.195619
0.139943
0.440921
0.409352
0.221625
0.311966
0.238251
0.241871
0.721168
0.660885
0.533464
0.418311
0.736712
0.779372
0.649503
0.67677
0.741038
0.733606
0.728756
0.663441
0.661544
0.642666
0.671886
0.762749
0.779753
0.65004
0.633971
0.774024
0.769486
0.335564
0.354603
0.27522
0.252701
0.122043
0.168753
0.311967
0.342564
0.260054
0.688693
0.708059
0.716056
0.707458
0.616104
0.641955
0.596536
0.562695
0.46728
0.516636
0.653076
0.63425
0.719443
0.721138
0.709454
0.720793
0.724289
0.731557
0.734942
0.738851
0.695363
0.715705
0.672311
0.641067
0.645765
0.632502
0.648597
0.685387
0.766671
0.770627
0.721086
0.609999
0.613472
0.69695
0.70397
0.676139
0.683083
0.0242119
0.00722762
-0.000659228
-0.000929955
0.00950865
0.0315404
0.00972601
0.0347997
0.525416
0.533941
0.376568
0.385503
0.335504
0.344446
0.345013
0.334952
0.254881
0.251908
0.0404118
0.0657006
0.0921644
0.0675211
0.208199
0.197699
0.067658
0.0614176
0.0603261
0.0411593
0.141207
0.132005
0.172745
0.183203
0.175691
0.185554
0.0855737
0.0789037
0.10958
0.117517
0.0724533
0.0782584
0.0428338
0.0390118
2.08033e-06
4.04794e-06
6.35202e-09
9.53779e-09
-6.47784e-11
-3.49474e-11
4.22575e-07
6.06981e-07
0.000476355
0.000391483
0.00698775
0.00807365
0.000642647
0.000705276
0.000262654
0.000249088
0.689864
0.679605
0.709398
0.315935
0.268795
0.334179
0.258307
0.187954
0.186616
0.496748
0.488343
0.687821
0.699492
0.350513
0.385203
0.440778
0.46873
0.531182
0.483588
0.0540093
0.108349
0.176885
0.130295
0.714947
0.722742
0.592559
0.587851
-1.01244e-07
-1.01926e-07
0.0370448
0.0346561
0.0207863
0.0203377
0.0229918
0.0215295
8.65832e-06
1.76258e-05
9.08057e-05
5.28984e-05
0.678458
0.68602
0.49908
0.516342
0.565227
0.581714
0.676168
0.682137
0.595112
0.593632
0.397824
0.399449
0.174945
0.175148
-0.00241122
-0.00212334
0.108409
0.107951
0.00829722
0.0553841
0.584262
0.596774
0.628947
0.635523
0.739128
0.743699
0.699532
0.704332
0.644445
0.610197
0.592648
0.567737
0.707504
0.73615
0.125981
0.186695
0.142761
0.200786
0.270676
0.534426
0.553282
0.408714
0.456476
0.245965
0.231349
0.298904
0.238369
0.318245
0.254716
0.478243
0.630791
0.629355
0.754051
0.723728
0.741996
0.746427
0.665588
0.635721
0.656592
0.66261
0.5837
0.487386
0.451268
0.499184
0.465379
0.377535
0.322704
0.29491
0.361833
0.244565
0.319018
0.198394
0.557626
0.611839
0.595039
0.553435
0.577545
0.452647
0.483136
0.252372
0.214622
0.361912
0.268163
0.216029
0.745044
0.701186
0.652928
0.718989
0.659818
0.647778
0.687877
0.656366
0.712081
0.738431
0.608435
0.5889
0.722702
0.713822
0.753457
0.707673
0.666803
0.641714
0.692269
0.735557
0.413688
0.432401
0.31777
0.345332
0.291861
0.314708
0.0506826
0.0210034
0.357122
0.386454
0.248033
0.21356
0.673683
0.649413
0.703353
0.715958
0.521525
0.562026
0.621713
0.636341
0.691859
0.706428
0.728486
0.71964
0.729364
0.71608
0.668194
0.645544
0.688904
0.710143
0.643587
0.677192
0.631039
0.642064
0.681497
0.646458
0.7674
0.770536
0.620549
0.640919
0.60726
0.611074
0.718201
0.690008
0.00823546
0.0268668
0.00932767
0.0303498
0.0326945
0.0337736
0.0381978
0.0383106
0.345744
0.371801
0.526567
0.517142
0.394377
0.398183
0.369619
0.359972
0.349284
0.350257
0.383785
0.393027
0.280586
0.289866
0.0624897
0.0578441
0.0697872
0.042971
0.277867
0.265301
0.190487
0.186383
0.164548
0.160265
0.191637
0.0257887
0.0293202
0.0331536
0.0371633
0.080294
0.14575
0.136641
0.161909
0.172148
0.190728
0.19481
0.110899
0.106271
0.0994296
0.0927832
0.0970869
0.104898
0.115053
0.123129
0.0773883
0.0835107
0.00657017
0.0075862
0.0688631
0.0730234
1.51911e-05
1.14778e-05
1.06318e-06
7.41936e-07
1.41966e-08
1.35645e-07
-2.14148e-10
-1.43961e-10
-1.58245e-10
-8.84256e-11
-8.76845e-12
-8.21842e-11
0.00071872
0.000594995
0.0146844
0.0143119
0.00304632
0.00333508
0.000460012
0.00041787
0.000705011
0.000637139
4.87233e-05
4.81083e-05
-1.53829e-10
-5.84152e-12
0.559121
0.609226
0.316797
0.36587
0.386215
0.421212
0.269418
0.214155
0.331036
0.370208
0.312516
0.686361
0.662989
0.765626
0.767161
0.303653
0.290845
0.319018
0.450647
0.418401
0.440888
0.398541
0.177471
0.198538
0.302891
0.186759
0.169669
0.111874
0.0754993
0.474827
0.527081
0.601625
0.610467
0.00409357
0.00454
2.99509e-05
2.01574e-05
0.00365878
0.00365928
0.00457613
0.00862045
0.0182024
0.0177687
1.13588e-05
2.39095e-05
4.08303e-05
7.06852e-05
0.613541
0.620664
0.682057
0.689147
0.52516
0.507894
-0.00309416
-0.00320433
-0.00295649
-0.00257632
0.205992
0.138012
0.591469
0.588561
0.477029
0.474786
0.16329
0.159557
0.239025
0.240031
-0.00253147
-0.00249261
0.0576664
0.055948
0.648561
0.663922
0.548195
0.457089
0.751435
0.753682
0.712141
0.706999
0.731792
0.743919
0.647688
0.611462
0.562871
0.623242
0.706807
0.733824
0.312282
0.368079
0.326278
0.484917
0.439285
0.487841
0.572355
0.474161
0.511633
0.331941
0.362621
0.482815
0.485511
0.704544
0.709679
0.653594
0.626551
0.640576
0.671905
0.701691
0.698028
0.749722
0.735762
0.528183
0.557127
0.409268
0.400507
0.425827
0.460597
0.486213
0.465591
0.446995
0.375968
0.421351
0.414952
0.231687
0.144951
0.0623702
0.093898
0.0588473
0.590683
0.644208
0.616075
0.467465
0.515026
0.369759
0.37558
0.348746
0.258762
0.300121
0.243365
0.236073
0.345236
0.252432
0.745013
0.699111
0.656224
0.654473
0.655483
0.644653
0.663204
0.701596
0.76498
0.692394
0.65916
0.738495
0.720689
0.64541
0.626915
0.747165
0.74727
0.714319
0.759838
0.452137
0.469865
0.371972
0.331673
0.370207
0.392959
0.204862
0.248894
0.103488
0.0969838
0.0643191
0.0211287
0.186756
0.149449
0.169737
0.280457
0.680556
0.658112
0.639981
0.624477
0.711551
0.698197
0.722862
0.722741
0.733969
0.728593
0.729978
0.719822
0.6739
0.649803
0.626322
0.632121
0.629577
0.638563
0.77043
0.770621
0.624414
0.646341
0.420804
0.426466
0.0960181
0.0593234
0.08329
0.0757099
-0.000322014
-0.000677943
-0.00102318
-0.000787698
0.00578276
0.00703188
0.328739
0.318095
0.462853
0.452027
0.517002
0.519242
0.460516
0.470128
0.378995
0.387338
0.35596
0.364423
0.358465
0.367558
0.353274
0.398988
0.408677
0.374346
0.320787
0.310897
0.271411
0.261629
-0.0001544
-0.000133574
0.0812766
0.0885544
0.15356
0.161367
-0.000989086
-0.0010067
0.243178
0.268565
0.303246
0.315995
0.22463
0.227724
0.173034
0.168801
0.140215
0.135829
0.0642734
0.0580109
0.0560168
0.076967
0.140906
0.157946
0.152846
0.143281
0.184458
0.174388
0.132536
0.128106
0.0973449
0.10384
0.105005
0.0973214
0.102022
0.107253
0.0863713
0.0802267
0.0607275
0.066011
0.00653066
0.00557128
0.0338081
0.0378817
0.0600134
0.0561221
0.0629397
0.00265442
0.00222266
2.63288e-06
3.63914e-06
3.48407e-09
1.59384e-08
-5.6993e-09
-6.81068e-09
-1.51383e-09
-2.21454e-09
-6.96597e-10
-1.02892e-09
-1.8151e-12
-8.96762e-12
-5.8662e-10
-2.28757e-10
2.73452e-08
4.01126e-08
8.67779e-09
4.83945e-09
0.0346756
0.0380773
0.00476339
0.00499608
0.00129047
0.00117855
0.00248978
0.00206662
0.00045764
0.000412832
0.000570988
0.000519569
5.95502e-05
6.68165e-05
3.91923e-06
4.90422e-06
1.26641e-11
8.26154e-12
0.260533
0.205288
0.392408
0.413811
0.421899
0.365168
0.412936
0.306893
0.32903
0.295477
0.154369
0.46395
0.634338
0.646471
0.746436
0.744816
0.764147
0.754585
0.709358
0.74407
0.37184
0.339888
0.629839
0.661322
0.465949
0.503401
0.386659
0.41513
0.465526
0.307839
0.341024
0.306145
0.140125
0.312159
0.357468
0.294541
-0.00344957
0.014536
0.719445
0.724855
0.480634
0.491187
0.0423055
0.0412346
0.000217908
0.000274474
2.74028e-05
1.83638e-05
0.00264801
0.00311846
0.000495571
-0.000131234
0.007325
0.00382704
0.0260377
0.0243734
0.0117163
0.0109968
0.000407943
0.000950928
1.76509e-07
1.1686e-07
3.26968e-05
1.8449e-05
2.82962e-06
2.09496e-06
0.657319
0.664575
0.696027
0.702594
0.613732
0.607026
0.5256
0.517963
-0.00406048
-0.00235897
-0.00190922
0.144608
0.212359
0.670614
0.66494
0.513411
0.514412
0.510861
0.508688
0.292216
0.288887
-0.00255541
-0.00253189
0.33076
0.337436
0.107184
0.106548
0.00713753
0.00607425
0.00266761
-0.00229006
0.699692
0.711229
0.568687
0.486273
0.740358
0.748242
0.696879
0.687479
0.727468
0.74264
0.658155
0.616316
0.636048
0.650981
0.0371059
-0.0110802
0.242686
0.510028
0.564419
0.669989
0.631061
0.65948
0.689579
0.691001
0.706439
0.416512
0.452697
0.187122
0.170686
0.158137
0.499553
0.538304
0.487112
0.346497
0.178063
0.0883044
0.0222986
0.0266555
-0.0139367
0.570687
0.627806
0.435791
0.399483
0.373742
0.419113
0.317794
0.433233
0.451382
0.22903
0.385433
0.723082
0.751693
0.742033
0.579027
0.48078
0.65223
0.657673
0.720741
0.78699
0.643569
0.664926
0.756602
0.693155
0.745868
0.731863
0.682726
0.653087
0.68835
0.699583
0.442408
0.467197
0.524817
0.539001
0.485323
0.449054
0.411118
0.305735
0.277631
0.206534
0.167428
-0.000749405
0.00592341
0.156801
0.371999
0.329849
0.219133
0.704369
0.68268
0.64421
0.627598
0.715605
0.718869
0.735493
0.73249
0.624417
0.629225
0.75139
0.720131
0.292256
0.283698
0.497447
0.508905
0.155146
0.165064
0.335053
0.344244
0.274826
0.263549
-0.00196991
-0.00111034
0.00163615
0.000797635
0.00971856
0.00963711
-0.000576996
0.142545
0.152362
0.343906
0.354095
0.315343
0.302318
0.30655
0.318189
0.518835
0.527599
0.509158
0.518565
0.421209
0.434119
0.403211
0.412019
0.395618
0.361339
0.37266
0.361977
0.370546
0.411345
0.42143
0.343555
0.358751
0.264336
0.273768
0.264335
0.273821
0.00134371
0.00118168
0.0825098
0.0756647
0.106011
0.0988086
0.142851
0.082616
0.0509903
0.125984
0.116818
0.274588
0.272031
0.27938
0.263502
0.199407
0.1954
0.241812
0.231038
0.171386
0.179944
0.148122
0.143768
0.146817
0.0152321
0.0174087
0.0453058
0.0402503
0.14816
0.138875
0.114542
0.12392
0.162618
0.152059
0.166025
0.174586
0.117884
0.113327
0.117492
0.088516
0.0815767
0.121138
0.129545
0.110968
0.084346
0.090727
0.0704482
0.0764367
0.0715639
0.0121118
0.00681951
0.0251121
0.0283136
0.0498934
0.0421828
0.0508401
0.0567625
0.000636444
0.000518407
-7.96119e-08
-1.7022e-08
1.45402e-08
-8.28794e-09
-1.81924e-09
2.48199e-07
3.68859e-07
5.21316e-07
3.69205e-07
2.1025e-08
3.10905e-08
-3.18738e-09
-7.49286e-09
-7.23545e-11
-1.15232e-10
-3.36515e-10
-4.89693e-10
1.78552e-12
-9.58065e-11
3.80782e-10
2.81713e-10
7.0458e-09
1.04944e-08
2.50865e-07
1.73746e-07
0.0304958
0.0273475
0.0187195
0.0163928
0.00337038
0.00375682
0.00427497
0.00482256
0.0101559
0.0116439
0.00278649
0.00253687
0.0017062
0.00177631
2.03422e-05
2.57739e-05
0.000368765
0.000334241
0.000329095
0.000313056
7.53255e-05
8.27239e-05
1.00423e-07
1.23515e-07
1.33814e-11
-4.5934e-11
-7.87636e-12
0.664401
0.666679
0.715446
0.710014
0.515101
0.559232
0.545954
0.45994
0.174316
0.124113
0.454229
0.209724
0.140138
0.107499
0.504904
0.495778
0.671239
0.694789
0.743337
0.739612
0.689233
0.652314
0.752203
0.747033
0.686292
0.728443
0.293876
0.210411
0.543263
0.577404
0.640705
0.669024
0.34696
0.387859
0.425335
0.512689
0.466418
0.505918
0.459683
0.438818
0.310376
0.351388
0.259477
0.755371
0.760164
0.72959
0.230464
0.331498
0.41153
0.621677
0.613673
0.444055
0.452305
0.277283
0.270364
0.00404577
0.00200446
0.00091609
0.00111293
0.000358094
0.000446715
2.26904e-05
1.51154e-05
0.000204811
0.000163091
0.00311873
0.00264877
0.0623639
0.0648981
0.00620421
0.00319087
0.0121546
0.00849165
0.0293831
0.0274984
0.0123514
0.0107013
0.00872677
0.00820107
0.000123246
0.000117238
2.84688e-07
2.24147e-07
-4.15573e-09
-3.0775e-09
3.59617e-06
3.81729e-07
2.06469e-06
1.99985e-07
1.76188e-08
5.4162e-09
5.29972e-07
3.23141e-07
0.642501
0.649893
0.702549
0.696442
0.606304
0.613479
0.531302
0.538955
0.529969
0.555479
0.402005
0.35443
0.275433
0.331966
0.539485
0.533851
0.482202
0.472063
0.54088
0.538643
0.478743
0.480018
0.230581
0.227006
-0.002527
-0.00252094
0.222007
0.214444
0.297206
0.298894
0.107829
0.10755
0.0053222
0.00474346
0.63201
0.637487
0.667245
0.708577
0.691077
0.588574
0.606681
0.743189
0.747156
0.694677
0.0968396
0.650659
0.639219
0.651628
0.61998
0.644639
0.632219
0.559998
0.666894
0.643418
0.416163
0.297786
0.194883
0.420383
0.191493
0.00736311
-0.0116054
0.273609
0.21334
0.0130527
0.643521
0.660875
0.339155
0.302642
0.365735
0.401382
0.352353
0.285975
0.217379
0.259398
0.235321
0.729396
0.754204
0.596989
0.505019
0.649892
0.658562
0.783522
0.721055
0.738594
0.677967
0.645986
0.66131
0.726617
0.74541
0.432133
0.409763
0.55114
0.519423
0.393852
0.374773
0.286279
0.245796
0.0397589
0.0747687
0.415238
0.676686
0.698479
0.657849
0.637818
0.716333
0.703958
0.645412
0.680467
0.426556
0.423707
0.583794
0.59953
0.482829
0.483452
0.178329
0.176573
0.0365885
0.0201775
0.467006
0.475927
0.0787131
0.0759716
0.395203
0.406609
0.210205
0.212494
0.00885234
0.0278541
-7.24493e-05
5.63319e-05
-0.0024581
0.000160647
-0.000387583
-0.000221723
0.0822484
0.0904816
0.356716
0.366642
0.331023
0.34145
0.246348
0.258517
0.490087
0.499459
0.507113
0.516149
0.524844
0.532988
0.434628
0.427276
0.505691
0.491884
0.401168
0.410011
0.417045
0.407618
0.352849
0.344194
0.389134
0.401111
0.326458
0.335392
0.261979
0.252675
0.270938
0.280261
-9.14556e-05
-8.7445e-05
0.00379722
0.00337366
0.0745528
0.0683224
0.143795
0.1513
0.184233
0.193095
0.0482697
0.0782591
0.0248949
0.0217191
0.157554
0.123421
0.284378
0.286636
0.289316
0.30516
0.293818
0.280906
0.214048
0.216799
0.211522
0.221423
0.180099
0.1901
0.188657
0.181692
0.155008
0.16423
0.156237
0.151918
0.106903
0.115588
0.0281109
0.0248889
0.0623333
0.0556732
0.0556002
0.0776455
0.1646
0.155062
0.133869
0.124594
0.13864
0.147596
0.17371
0.182743
0.125102
0.120608
0.0813002
0.0749616
0.121308
0.129871
0.0892646
0.0961525
0.0899549
0.0967497
0.082707
0.0768478
0.00515604
0.00438065
0.0158075
0.0141737
0.0301122
0.0222578
0.039539
0.0336356
0.0623487
0.0663643
0.00261986
0.00219692
0.000116629
9.12626e-05
3.9625e-07
4.52628e-07
5.35975e-06
7.3396e-06
1.47223e-06
2.91323e-06
1.05845e-07
1.64105e-07
-1.40109e-09
-2.17724e-09
4.62916e-08
7.01772e-08
-1.01278e-08
-1.36418e-08
-5.51435e-09
-4.0273e-09
4.12909e-09
2.30731e-09
-8.44351e-10
-1.20435e-09
8.63263e-08
1.2775e-07
7.06853e-08
1.02753e-07
8.12015e-08
4.64958e-08
1.6538e-07
9.54263e-08
0.0406372
0.0388546
0.028871
0.0321978
0.0167808
0.0191181
0.00405932
0.00426111
0.00572005
0.00570045
0.00942789
0.0107989
0.00231779
0.00210446
0.00310241
0.00370102
0.00114909
0.00140317
0.0017795
0.00170723
0.000514046
0.000569237
0.000202079
0.000211739
6.23164e-05
5.71074e-05
6.47659e-06
8.75287e-06
3.32669e-08
-9.23835e-09
2.44193e-08
7.13515e-08
-7.5991e-11
0.667956
0.643696
0.0352998
0.0156854
0.748626
0.755118
0.143099
0.061411
0.653997
0.590432
0.479397
0.515151
0.520633
0.503588
0.503174
0.52929
0.307682
0.352861
0.216454
0.227894
0.386424
0.403271
0.701327
0.688956
0.706349
0.721278
0.72979
0.723788
0.651043
0.653431
0.650957
0.667308
0.761929
0.755537
0.723328
0.71614
0.519398
0.442803
0.73408
0.678259
0.275283
0.218195
0.614383
0.598454
0.618031
0.677959
0.434279
0.47416
0.495963
0.556233
0.566778
0.547799
0.516969
0.477625
0.197087
0.217761
0.104775
0.0309845
0.0453482
0.36989
0.328249
0.699203
0.686001
0.237132
0.233894
0.42691
0.413286
0.706341
0.713203
0.614034
0.623389
0.563785
0.559326
0.0130371
0.0114949
0.581101
0.594417
0.00479393
0.00565166
0.025365
0.0285399
0.00293839
0.00347477
2.92951e-05
2.14129e-05
1.27103e-06
1.76821e-06
3.80303e-05
3.48969e-05
0.00012934
0.000102153
0.00779544
0.00900031
0.000838569
0.00244532
0.05586
0.0405953
0.0451566
0.0474482
4.75144e-05
6.85617e-05
0.00157586
0.00192753
0.0303081
0.0298485
0.0330486
0.0309238
0.00460369
0.00303704
0.0124343
0.0142869
0.0101298
0.00951401
0.00232174
0.0021895
2.58929e-05
5.40733e-05
-2.05747e-08
-2.50617e-08
0.000338514
0.000341986
4.81145e-06
5.60397e-07
2.70616e-06
2.67855e-07
4.8655e-06
1.12975e-05
8.59526e-06
5.66577e-07
3.4706e-07
0.670868
0.663341
0.527379
0.533282
0.612565
0.618891
0.490811
0.498141
0.511387
0.502708
0.580729
0.598669
0.573228
0.590486
0.480325
0.44383
0.255859
0.314651
-0.00160281
-0.00285447
0.0821561
0.0258307
0.523933
0.518756
0.446905
0.436106
0.61639
0.615107
0.442883
0.441927
0.514776
0.514575
0.347078
0.344113
0.0332557
0.0310282
0.0398637
0.0384684
0.00427888
0.00383185
0.287071
0.281293
0.234981
0.237388
0.045246
0.0464233
-0.00111139
-0.00206883
0.02543
0.6324
0.60664
0.680456
0.685917
0.748767
0.749338
0.61428
0.616922
0.62345
0.380406
0.442327
0.457741
0.560381
0.614056
0.315894
-0.00304882
-0.00412246
0.0463954
0.0833351
0.106643
0.0574019
0.542485
0.515197
0.488983
0.515661
0.199286
0.411145
0.706856
0.746701
0.688744
0.704423
0.668023
0.675548
0.772439
0.709823
0.654425
0.656998
0.685164
0.747677
0.425989
0.39981
0.505559
0.48943
0.209159
0.161881
0.670913
0.692535
0.465839
0.46841
0.71315
0.714908
0.59215
0.59727
0.561216
0.568999
0.429572
0.435884
0.127131
0.128218
-0.000233955
-0.000483009
0.000182592
0.000106339
0.320301
0.308248
0.484672
0.270914
0.258653
0.10053
0.0621183
0.129227
0.122991
0.396672
0.404139
0.209889
0.259795
0.153812
0.0944453
0.00856431
0.0265766
0.00910852
0.0291196
-0.00254678
-0.00260269
0.126088
0.115875
0.317239
0.327402
0.369432
0.379079
0.328357
0.238102
0.225693
0.302133
0.289655
0.46736
0.477097
0.4799
0.488963
0.492251
0.502226
0.527309
0.535629
0.4546
0.445541
0.454907
0.462156
0.395605
0.402781
0.40385
0.412048
0.326709
0.336307
0.380087
0.390681
0.339884
0.349389
0.311178
0.320377
0.317327
0.32646
0.291109
0.281242
0.292565
0.301903
0.261618
-8.28656e-05
-7.35571e-05
-3.99678e-05
-4.22746e-05
0.00103953
0.000911729
0.0956656
0.0853421
0.0844799
0.134186
0.141456
0.173756
0.182257
0.18217
0.150021
0.031528
0.0549301
0.00718264
0.0214137
0.0686103
0.105758
0.17818
0.166996
0.255739
0.230656
0.266604
0.25076
0.292243
0.276364
0.217591
0.213827
0.203683
0.206103
0.221225
0.231563
0.188829
0.199086
0.177515
0.173923
0.182677
0.154803
0.162996
0.0827059
0.0756386
0.0399235
0.0356782
0.0773279
0.0703359
0.121884
0.111686
0.0712753
0.0503498
0.105565
0.113166
0.150611
0.160229
0.15674
0.166098
0.157786
0.164938
0.127557
0.128398
0.136708
0.0948136
0.0879151
0.0823174
0.0895538
0.11295
0.112977
0.103437
0.111271
0.0709668
0.0653597
0.00543039
0.00977289
0.0222424
0.0202835
0.0087595
0.0100872
0.0344084
0.0288206
0.0297679
0.0450669
0.047073
0.055509
0.0139357
0.0122749
0.0147614
0.0169536
0.00207848
0.00246816
0.00148267
0.00167298
7.49559e-05
5.88673e-05
3.18905e-06
3.71566e-06
4.37088e-06
1.34692e-05
1.80498e-05
6.69661e-06
9.11243e-06
1.02705e-06
2.07254e-06
-3.22446e-09
-6.4016e-09
1.1085e-07
1.91874e-07
-1.83542e-08
-2.47496e-08
-4.51563e-09
-6.31226e-09
4.22696e-10
7.00369e-10
-3.9731e-10
2.45005e-10
1.02844e-06
1.44724e-06
2.1676e-07
3.15895e-07
1.55384e-08
1.18692e-10
2.10702e-09
1.13832e-09
4.70432e-08
2.67856e-08
1.22613e-07
7.05254e-08
0.01636
0.0240215
0.0283626
0.0254249
0.0488644
0.048121
0.00441538
0.00396765
0.00994632
0.00887564
0.00603166
0.00689551
0.00588657
0.0019207
0.00174093
0.00356301
0.00298548
0.00146129
0.00119686
0.00056804
0.000684215
0.000316394
0.000329742
0.000144871
0.000128674
5.08727e-05
4.54148e-05
1.13475e-05
1.18568e-05
2.14749e-07
1.75004e-07
5.44608e-07
1.81645e-06
3.94827e-08
1.11157e-07
-0.00299297
-0.00212968
0.725837
0.747639
0.74318
0.117988
0.0699799
0.716639
0.700421
0.726051
0.701291
0.539518
0.589749
0.499932
0.535603
0.0652323
0.139397
0.186922
0.122522
0.2567
0.551278
0.520792
0.517346
0.581792
0.591962
0.672047
0.661787
0.63092
0.610893
0.644156
0.658457
0.736138
0.740127
0.743142
0.738684
0.68063
0.674127
0.680623
0.677676
0.648861
0.650055
0.664734
0.662494
0.661461
0.72844
0.728196
0.726901
0.689287
0.62711
0.662432
0.621743
0.634103
0.68363
0.730332
0.497656
0.482259
0.0375578
0.0814896
0.521278
0.487725
0.629763
0.650158
0.660658
0.597007
0.611374
0.388326
0.349872
0.607341
0.587719
0.398169
0.38541
0.217642
0.0161817
-0.00131448
-0.004562
0.357264
0.682518
0.729789
0.453694
0.363048
0.111393
0.111776
0.46898
0.532377
0.492334
0.642169
0.627687
0.650738
0.663403
0.60458
0.0571307
0.0523876
-0.00469423
-0.00431347
0.583736
0.569642
0.247777
0.261466
0.058925
0.0553731
0.032011
0.0305236
0.00610475
0.0052398
0.00385054
0.00325342
0.000171796
0.000217632
2.5015e-06
1.62116e-06
1.67613e-05
1.10775e-05
0.000109153
0.000137157
9.38574e-05
0.000118721
0.00101019
0.000821093
0.00578291
0.00495333
0.0174852
0.0155493
9.91402e-05
0.00064634
-0.000139913
0.0215059
0.0311519
0.064916
0.0413814
0.0387095
-3.13908e-05
-2.55541e-05
0.00128529
0.0268213
0.0263572
0.0106373
0.00917289
0.00888442
0.00857181
0.000776034
0.000327713
0.00059527
0.000562539
1.80241e-05
2.44963e-05
3.0818e-06
3.97229e-06
-6.57214e-09
-3.64995e-08
-3.2686e-09
-1.87041e-09
0.00118857
0.00119182
1.11357e-05
1.46549e-05
6.43144e-06
8.46034e-06
9.45261e-07
5.84523e-07
1.71332e-06
2.32242e-06
0.660177
0.652784
0.627872
0.63514
0.0907754
0.0365373
0.542224
0.536219
0.630667
0.636347
0.625076
0.63111
0.462836
0.454844
0.522388
0.513775
0.584113
0.602366
0.577156
0.594747
0.453694
0.488886
0.360933
0.407824
0.172817
0.102352
-0.00227435
-0.00273819
-0.000386569
-0.00283129
0.000701587
-0.00270177
0.636907
0.643403
0.691491
0.686646
0.643565
0.639264
0.606042
0.609675
0.595002
0.59586
0.400848
0.400041
0.480742
0.480934
0.353401
0.352701
0.236049
0.233598
0.0937919
0.090452
0.105738
0.104558
0.00341162
0.00300285
0.312498
0.322625
0.342555
0.346583
0.174296
0.173154
0.000658523