/*--------------------------------*- C++ -*----------------------------------*\
  =========                 |
  \\      /  F ield         | OpenFOAM: The Open Source CFD Toolbox
   \\    /   O peration     | Website:  https://openfoam.org
    \\  /    A nd           | Version:  7
     \\/     M anipulation  |
\*---------------------------------------------------------------------------*/
FoamFile
{
    version     2.0;
    format      ascii;
    class       volScalarField;
    location    "780";
    object      T;
}
// * * * * * * * * * * * * * * * * * * * * * * * * * * * * * * * * * * * * * //

dimensions      [0 0 0 1 0 0 0];

internalField   nonuniform List<scalar> 
238806
(
0.999617
1.00033
0.998713
1.0008
0.999458
0.999953
0.999928
1.00008
0.999835
0.999847
0.999982
1.00104
0.999884
0.999879
0.999815
0.999524
1
0.999726
0.999989
1.00019
0.999908
0.999901
0.999574
0.999782
1.00023
0.99975
0.999617
0.99998
1.00014
0.999482
0.999925
0.999876
0.999928
0.999922
0.999924
0.999927
0.970704
0.970575
0.99952
1.00008
0.999926
0.99965
0.999924
0.999925
1.00006
0.999998
0.999818
0.999756
0.99994
0.999896
0.999926
0.999931
0.999892
0.999887
0.993341
0.993408
0.999957
0.999216
0.999692
0.999727
0.99942
1.00107
0.999645
1.00008
1.00007
0.999994
1.00003
0.999983
1.00009
0.999975
0.99992
0.999893
0.999885
0.999898
0.999915
0.999963
0.999922
0.999925
0.99993
0.998488
0.998495
0.999917
0.999912
0.999944
0.999942
0.999896
0.999937
0.999968
0.999726
0.999978
0.999895
1.00047
0.999518
1.0001
1.00037
0.999941
0.999945
0.999783
0.999854
1.00034
1.00001
0.999925
0.99989
0.999967
0.999945
0.999851
0.999843
0.999904
0.999901
0.999907
0.99989
0.999896
1.00003
0.999945
0.999958
0.999888
0.999897
0.968176
0.968227
0.968069
0.999867
0.999983
1
0.999964
0.999985
0.999923
0.999394
0.999494
0.999854
1.00011
1.00013
0.999364
0.999892
0.999968
0.998928
0.999726
0.999977
1.00001
0.9994
0.999993
0.999373
1
0.99974
0.999677
0.998388
0.999943
0.999923
0.999991
0.999959
0.999905
0.999902
0.999927
0.999916
0.99985
0.99984
0.999896
0.999889
0.999895
0.999889
0.999901
0.999895
0.999947
0.999932
0.999936
0.999932
0.999922
0.999922
0.998793
0.998788
0.970836
0.970707
0.999903
0.999882
0.999583
0.999628
0.999744
0.999931
0.999883
0.999934
0.999936
0.999837
0.999722
1.00001
0.999945
0.999584
0.999759
0.999571
0.999879
0.999924
1.0001
0.999943
0.999953
1.00015
1.00018
1.00028
0.99901
0.9999
1.00025
1.00027
0.999792
0.999486
1.00005
0.999968
1.00002
1.00036
0.999916
0.999834
0.999914
0.9999
0.999929
0.999929
0.999758
0.999764
0.999824
0.999814
0.99986
0.999869
1.00014
1.00001
0.999898
0.999896
0.999983
0.999935
0.999853
1.00005
0.999953
0.999951
0.999923
0.999924
0.999344
0.999372
0.99674
0.99687
0.996999
0.997118
0.988577
0.988132
1.00004
1.00006
0.999094
1.00003
0.999755
0.999749
0.999585
0.999574
1.00004
1.00003
0.999932
0.999933
0.999892
0.999931
0.999703
0.999922
0.999872
1.00005
0.999674
0.999889
0.999593
1.00075
0.999889
1.00037
0.999957
0.999942
0.999929
0.999929
0.999971
0.999941
0.999864
1.00016
0.999865
0.999878
1.00017
0.999996
0.998917
1.00113
0.999644
0.999998
1.00006
0.999913
0.999879
0.999937
0.999943
0.999998
0.999351
0.999947
0.99995
0.99994
0.999936
0.999813
0.999812
0.999861
0.99984
0.999822
0.999812
0.999836
0.999827
0.999882
0.999872
0.999869
0.999838
0.999886
0.999879
0.999905
0.999928
0.999921
0.999921
0.999943
0.999948
1
0.999906
0.999891
0.999894
0.999916
0.999919
0.999899
0.999896
0.998881
0.998924
0.99919
0.999223
0.998671
0.998616
0.998432
0.998425
0.99639
0.996412
0.988109
0.988558
0.967954
0.999927
0.999974
1.00005
0.999998
0.994373
0.994131
0.999821
0.99983
0.999598
0.999679
1.0003
1.00073
1.00002
0.999893
0.999914
0.999926
0.999979
1.00032
0.999409
0.9999
0.999335
0.999937
0.999758
0.999756
0.996801
1.00055
1.00063
0.999841
0.999289
0.999918
0.999944
0.999937
0.999936
0.999767
0.999952
0.998742
0.999771
0.998541
0.999632
0.999761
0.999779
0.999974
1.00021
1.0003
1.00067
0.999898
1.00104
1.00015
0.999998
1.00003
1.00008
1.00016
0.999983
1.00002
0.99999
0.999959
0.999852
0.999563
0.99997
0.999759
0.999895
0.99988
0.999942
0.999943
0.999936
0.999919
0.999951
0.999946
0.999932
0.999938
0.999904
0.999925
0.99977
0.999765
0.999864
0.999872
0.999815
0.999805
0.999837
0.999825
0.999845
0.999838
0.999853
0.99986
0.999886
0.999878
0.999915
0.999901
0.999924
0.99992
0.999957
0.999948
0.999924
0.99961
0.999915
0.999921
0.999911
0.999913
0.999905
0.999074
0.999109
0.999343
0.99937
0.999122
0.999085
0.998993
0.999035
0.996871
0.996741
0.997289
0.997382
0.996679
0.996548
0.979177
0.979249
0.995695
0.995855
1
1.00042
0.999971
0.999858
0.999874
0.999677
0.999915
0.999638
0.999937
0.993608
0.993673
0.999708
0.9997
0.999669
0.99967
0.999653
0.999624
0.999804
0.999726
1.00005
1.00013
0.999958
1.0003
0.99993
0.999929
0.999937
0.99984
0.99954
1.00024
1.0002
0.99912
1.00019
0.99967
0.997558
1.0023
1.00032
0.999976
1.00004
0.999862
0.999927
0.999958
0.999986
0.999921
0.999921
0.999933
0.999931
0.999943
0.999941
1.00011
0.999976
0.999821
0.999593
1.00041
0.999886
0.999899
0.999904
0.999605
1.00009
0.999624
1.00009
0.999939
1.00017
1.0002
0.999901
1.00056
1.00122
1.00003
1.00013
1.00004
0.999959
0.999864
0.999867
0.999948
0.999937
0.999718
0.999928
0.999952
0.999938
0.999997
1.00002
0.999948
0.999952
0.999883
0.999793
0.999942
0.999943
0.999942
0.999944
0.999933
0.999941
0.999744
0.999749
0.999724
0.999849
0.99988
0.999888
0.999848
0.999857
0.999831
0.99984
0.999847
0.999856
0.999831
0.999822
0.99985
0.999839
0.999842
0.99985
0.999894
0.9999
0.999881
0.999874
0.999916
0.999916
0.999907
0.999912
0.999918
0.999913
0.999932
0.99988
0.99993
0.99993
0.999938
0.999945
0.999816
0.999985
0.999782
0.999917
0.99992
0.999914
0.999895
0.999889
0.998377
0.998313
0.998925
0.998882
0.999189
0.999222
0.998741
0.998736
0.998611
0.998667
0.998201
0.998129
0.997103
0.997087
0.997359
0.997368
0.996528
0.99666
0.97744
0.976775
0.97022
0.970086
0.992926
0.992949
0.98754
0.987566
0.999863
1.0002
1.00146
1.00018
0.999917
0.999836
0.999876
0.999874
1.00004
0.99994
0.999929
0.99984
0.994474
0.994528
0.977716
0.977591
0.999514
0.999511
0.999611
0.9996
0.999611
0.999619
0.999663
0.999576
0.999734
0.999609
0.999826
0.999521
0.999828
0.999989
0.999847
0.999768
0.999925
0.999939
0.999919
0.999908
0.999934
0.999864
0.999793
1.00025
0.999985
0.999786
0.999834
0.999881
0.99946
0.999881
1.00012
0.999316
0.999088
0.999868
0.999945
1.00151
1.00012
1.00018
1.00004
0.999932
0.999955
0.999917
0.999917
0.999936
0.999938
0.999934
0.999933
0.999916
0.999946
1.00004
1.00029
0.999623
1.00028
0.998997
1.00014
0.999884
0.99993
1.00045
0.998847
1.00101
1.00002
0.999874
0.999912
0.999794
0.999874
1.00041
0.999886
1.00013
1.00019
1.00013
0.999986
0.999979
0.999859
0.999444
1.00007
0.999395
1.00027
0.999963
0.999949
0.999955
0.999874
0.999962
0.999973
1.00009
1.0003
0.999953
0.999952
0.999369
1.00047
0.999942
0.999942
0.999947
0.999951
0.999947
0.999907
0.999801
0.999802
0.999772
0.999769
0.999775
0.999783
0.999799
0.999804
0.999867
0.999876
0.999875
0.999883
0.999853
0.999862
0.999834
0.999824
0.999846
0.999857
0.999845
0.999835
0.999856
0.999848
0.999895
0.999901
0.99991
0.999906
0.999896
0.999889
0.999938
0.999934
0.99992
0.999936
0.999939
0.999933
0.999933
0.99994
1.00037
0.999733
0.999735
0.999977
1.00008
0.999909
0.999909
0.99991
0.999919
0.999896
0.999903
0.99983
0.999836
0.998376
0.998374
0.998794
0.998746
0.998826
0.998833
0.999289
0.999258
0.999083
0.999121
0.99899
0.999032
0.996873
0.996741
0.997869
0.997863
0.997982
0.99799
0.997455
0.997545
0.99749
0.99758
0.996925
0.997038
0.996926
0.996805
0.990606
0.990954
0.978645
0.979327
0.975471
0.974834
0.970454
0.970322
0.969802
0.969661
0.992651
0.992634
0.968209
0.968411
0.968239
0.999902
0.999984
0.999938
0.998343
1.00152
0.999955
0.999958
0.999101
1.00042
0.999879
0.999851
0.999881
0.999925
0.999886
0.999896
0.999828
0.999707
1
0.999914
0.999843
0.999822
0.990706
0.990355
0.993742
0.993804
0.991513
0.991598
0.983484
0.983572
0.999635
0.999649
0.999724
0.999717
0.999623
0.999612
0.999589
0.999577
0.999635
0.999627
0.99963
0.999746
0.999617
0.999682
0.999671
0.999779
1.00002
0.999685
0.998737
1.00007
1.00052
0.999402
0.999635
0.999768
0.999885
0.999978
0.999925
0.999944
0.999938
0.999944
0.99993
1.00004
0.999794
0.999819
0.999995
0.999775
0.99988
0.999896
1.00034
0.999951
0.999626
1
0.999983
0.998851
0.998684
0.999774
0.999682
0.999979
0.999961
0.999926
0.999925
0.999934
0.999932
0.999529
0.999834
0.999943
0.999957
0.99981
0.999733
1.00068
0.999953
0.999041
0.999917
1.00018
0.999462
0.999953
0.999866
0.999991
0.999825
0.999915
1.00008
0.999932
0.998787
0.99951
0.999689
0.999719
0.99967
1.00008
1.00016
1.00039
1.00034
0.999913
0.999911
0.999952
0.999946
1.00014
0.999976
0.999951
0.99995
0.999959
0.999953
0.999947
1.00006
0.999952
0.999945
0.999948
0.999936
0.99994
0.999757
0.999752
0.999752
0.999756
0.999806
0.999778
0.999826
0.999822
0.999836
0.999885
0.999893
0.999866
0.999859
0.999834
0.999844
0.999865
0.999855
0.999861
0.999877
0.999921
0.999922
0.999886
0.999879
0.999907
0.999902
0.999919
0.999916
0.999934
0.999948
0.999933
0.99993
0.999917
0.999925
0.999945
0.999946
0.999943
0.999938
0.999998
0.999943
0.999895
0.999903
0.999903
0.999928
0.999945
0.999902
0.999909
0.998315
0.998314
0.998312
0.99831
0.998693
0.998691
0.998838
0.998837
0.999296
0.999322
0.999257
0.999288
0.999082
0.99912
0.998798
0.998746
0.99872
0.998724
0.998132
0.99813
0.997785
0.997778
0.998208
0.998216
0.99634
0.996197
0.997313
0.997301
0.997202
0.997098
0.997572
0.99766
0.997508
0.997598
0.996434
0.996293
0.996961
0.997076
0.996787
0.99691
0.99519
0.995171
0.978561
0.978483
0.97473
0.975372
0.970577
0.970446
0.972668
0.973357
0.988182
0.987744
0.992623
0.99291
0.987488
0.987514
0.984553
0.984596
1.00042
0.999763
0.999495
0.999814
0.999884
1.00078
1.00031
1.00055
0.998896
0.999645
0.999625
0.999956
0.999998
0.999965
0.999796
0.999874
0.999855
0.999849
0.999859
0.999674
1.00015
0.99968
1.00004
0.999856
0.999896
0.999797
0.9998
0.983691
0.983316
0.994802
0.994853
0.993544
0.993479
0.993866
0.993928
0.980891
0.980995
0.98609
0.986214
0.999832
0.999844
0.999289
0.999293
0.99952
0.999532
0.999798
0.99981
0.999692
0.9997
0.999596
0.999606
0.999639
0.999632
0.999635
0.9997
0.999662
0.999664
0.999671
0.999768
1.00001
0.999925
1.00018
0.999829
0.999905
1.00003
0.999928
0.999925
0.999935
0.999944
1.00029
0.999372
0.999567
0.999826
0.999637
0.999844
0.999959
0.999979
0.999688
0.999666
0.999639
0.999774
0.999819
1.00058
0.999454
1.00039
0.999663
0.999809
0.999789
1.0001
0.999876
0.999624
1.00008
0.999749
0.999919
0.999929
0.999924
0.999924
0.999937
0.999938
0.999981
0.999976
1.00114
0.999729
1.00027
1.00026
0.999312
0.999789
0.999616
0.999864
1.00021
0.999237
0.999586
1.0001
1.00013
1.00007
0.999806
0.999937
0.999869
0.999793
1.00008
0.999683
0.999206
0.998923
1.00001
0.999973
0.999842
0.999912
0.999954
0.999954
0.999975
0.999958
0.999982
1.00042
0.999949
0.999969
0.999986
0.9997
0.999938
0.999945
0.999951
0.999952
0.999937
0.999934
0.999775
0.999771
0.999781
0.999782
0.999765
0.99976
0.999754
0.999779
0.999834
0.999831
0.9998
0.999868
0.999873
0.999865
0.99987
0.999878
0.999858
0.99987
0.999893
0.999946
0.999881
0.999882
0.999914
0.999918
0.999915
0.99991
0.999936
0.999935
0.999927
0.999924
0.999927
0.999929
0.999945
0.999946
0.999951
0.999951
0.999932
0.999921
0.999902
0.999899
0.999896
0.999894
0.999905
0.999916
0.998378
0.998379
0.99864
0.998638
0.998742
0.99879
0.999082
0.999119
0.99888
0.998887
0.999338
0.999343
0.999318
0.999318
0.999226
0.999193
0.999157
0.999159
0.998986
0.999029
0.998764
0.998815
0.996859
0.996734
0.998202
0.998204
0.998286
0.998216
0.998299
0.998306
0.998083
0.998091
0.997974
0.996829
0.996955
0.997076
0.997192
0.997327
0.99721
0.997107
0.997563
0.997652
0.997668
0.997677
0.997472
0.997481
0.997377
0.99727
0.996523
0.996653
0.996942
0.997056
0.99677
0.996894
0.995325
0.995501
0.996068
0.996081
0.979108
0.978445
0.980156
0.979478
0.976024
0.976118
0.971633
0.971194
0.970335
0.970202
0.971744
0.971213
0.9882
0.987765
0.993342
0.993354
0.99058
0.990574
0.986493
0.986462
0.987071
0.987041
0.980255
0.980279
0.968443
0.968452
0.999896
0.999678
1.00018
0.999978
0.999892
1.00001
1.00001
0.999855
0.999705
0.998616
1.00083
0.999924
0.999923
1.00013
1.00033
0.999863
1
0.999632
0.999855
0.999868
0.999899
0.99983
1.0006
0.999942
1.00072
0.999693
1.00021
1.00021
0.999996
0.999725
0.999776
0.99982
0.999841
0.991243
0.991322
0.981525
0.981382
0.991784
0.991725
0.994099
0.994152
0.993274
0.993206
0.981375
0.981502
0.985722
0.985595
0.999781
0.999792
0.99981
0.999821
0.999321
0.99932
0.999378
0.999397
0.999457
0.999454
0.999508
0.999506
0.999708
0.999716
0.999597
0.999584
0.99957
0.999559
0.999643
0.999636
0.999625
0.99963
0.999649
0.999663
0.99968
0.99994
0.999839
0.999853
1.00006
1.00027
0.999864
0.999806
0.999933
0.999945
0.999935
0.999942
1.00005
0.999956
0.999872
0.999935
0.99947
0.999684
1.00019
0.999372
0.999992
1.00015
1.00006
0.999775
0.999825
0.999692
1
1.00004
1.00001
0.999313
0.999957
0.999914
0.999916
0.999927
0.999927
0.999805
0.999762
0.999947
1.00002
1.00039
0.999899
0.999939
1.00011
0.999303
1.00005
0.999772
1.00029
0.999708
1.00012
0.99937
1.00006
1.00067
0.999998
0.999994
0.999763
0.999764
0.99993
0.999961
0.999565
0.999883
0.99984
1.00002
0.999571
1.00002
1.00008
0.999932
1.00096
0.999541
1.00057
0.999681
0.999974
0.999959
0.999899
1.00048
0.999547
0.999968
0.999991
0.999974
0.999959
0.999966
0.999957
0.99964
0.999864
0.999959
0.999949
0.999973
0.999974
0.999941
0.99993
0.999784
0.999781
0.999748
0.99974
0.999781
0.999778
0.999826
0.999743
0.999879
0.999523
0.999855
0.999856
0.999584
1
0.999814
0.999914
0.999868
0.999859
0.99992
0.999906
0.999892
0.999899
0.999893
0.999886
0.999923
0.999926
0.999909
0.999904
0.999942
0.999939
0.999935
0.999938
0.999946
0.999946
0.999922
0.999919
0.999908
0.999905
0.999401
0.999401
0.998581
0.998582
0.998549
0.998491
0.998796
0.998748
0.998926
0.998883
0.999119
0.999081
0.998542
0.998536
0.999083
0.999043
0.99928
0.999275
0.999181
0.999217
0.999256
0.999287
0.999078
0.999116
0.999192
0.999225
0.999156
0.998982
0.999025
0.998942
0.999046
0.999005
0.998825
0.998776
0.996236
0.996087
0.996469
0.996607
0.997538
0.997536
0.998068
0.998072
0.998457
0.998463
0.998419
0.998482
0.997943
0.997935
0.998158
0.998165
0.997842
0.99785
0.996724
0.996594
0.997204
0.997218
0.997634
0.997643
0.997389
0.997294
0.997589
0.997499
0.997755
0.997764
0.99726
0.99725
0.996667
0.996538
0.996841
0.996823
0.997159
0.997044
0.99637
0.996508
0.992563
0.992266
0.995874
0.996028
0.995755
0.995743
0.996058
0.989577
0.989186
0.973863
0.974589
0.978826
0.979498
0.974387
0.975036
0.974546
0.975196
0.973285
0.973906
0.971076
0.97152
0.970486
0.970598
0.971029
0.971571
0.969901
0.969761
0.995693
0.995854
0.990652
0.990635
0.988914
0.988893
0.989824
0.989424
0.986032
0.985992
0.987012
0.986984
0.981536
0.981579
0.973469
0.973488
0.96806
0.967971
0.999921
0.999996
1.00019
1.00012
0.999588
1.00017
0.999958
1.00004
0.999875
1.00028
0.999949
0.998172
0.999857
0.999853
0.999953
0.99999
1.00004
0.999905
0.999963
1
0.999817
0.999897
0.999877
0.99979
0.999873
0.999881
0.999475
1.00006
1.00009
1.00009
0.999707
0.999803
0.999629
1.00025
0.99986
0.9995
0.999678
0.999663
0.999845
0.999861
0.999385
0.999374
0.995689
0.995686
0.987861
0.988296
0.981662
0.981519
0.99108
0.991408
0.995693
0.99566
0.993902
0.993847
0.994114
0.994173
0.992476
0.992552
0.99035
0.990442
0.977929
0.977801
0.984068
0.984209
0.975551
0.975088
0.999836
0.999846
0.999828
0.999838
0.999522
0.999504
0.999441
0.999418
0.999481
0.999402
0.999448
0.999521
0.999522
0.999768
0.999757
0.99966
0.999652
0.999601
0.999589
0.999576
0.999565
0.999576
0.999585
0.999677
0.999674
0.999637
0.999629
0.999663
0.999635
0.999846
0.999822
0.999288
0.999944
0.999982
0.999897
0.999876
1.00001
0.99986
0.999933
0.999938
0.999944
0.999924
0.999888
0.999754
1.00001
0.999701
0.999694
0.999834
1.00042
1.00002
0.999954
0.99992
0.99992
0.999822
1.00003
0.99991
1.00087
0.999547
0.999081
0.999234
1.00021
1.00026
0.999706
0.999465
1.00002
1.00011
0.999607
0.999685
0.999837
0.999767
0.999865
0.999904
0.999921
0.999913
0.999904
0.999892
0.999935
1.00015
0.999721
1.00125
0.999675
0.99953
0.999779
1.00082
0.999805
0.999509
0.999939
0.999949
0.999999
0.999802
0.999947
0.999936
0.999955
0.999964
0.999952
0.999972
0.99992
0.999936
0.99994
0.999975
0.999822
0.99982
0.999804
0.999802
0.999776
0.999766
0.999757
0.999774
0.999777
0.999767
0.999765
0.99977
0.999757
0.999689
0.99982
0.999806
0.99993
0.999922
0.999924
0.999915
0.999912
0.99988
0.999873
0.999927
0.99993
0.999931
0.999934
1.00001
1
0.999316
0.999293
0.999601
0.9996
0.997333
0.997433
0.999114
0.999149
0.999114
0.999076
0.998643
0.998646
0.998928
0.998886
0.998791
0.998743
0.998839
0.999233
0.999259
0.99865
0.998657
0.998588
0.998529
0.999098
0.999131
0.999289
0.999316
0.999314
0.999309
0.999313
0.999311
0.999346
0.999374
0.999317
0.999155
0.999153
0.999191
0.999224
0.998977
0.99902
0.998949
0.998946
0.998596
0.998653
0.998772
0.998822
0.99649
0.996353
0.996608
0.99647
0.997455
0.997361
0.99754
0.998402
0.998404
0.997876
0.997792
0.99823
0.998223
0.998347
0.998341
0.998366
0.998373
0.998186
0.998194
0.998075
0.99815
0.997925
0.997934
0.997834
0.996289
0.996431
0.996964
0.996838
0.997555
0.997465
0.997088
0.997192
0.997482
0.997474
0.997633
0.997719
0.997571
0.997579
0.997465
0.996418
0.996276
0.996909
0.997022
0.996806
0.99703
0.997146
0.99633
0.99647
0.996641
0.995887
0.99589
0.995861
0.996016
0.995893
0.995884
0.995736
0.995901
0.990988
0.990641
0.983135
0.983043
0.975407
0.975616
0.975049
0.978734
0.97941
0.978793
0.978113
0.976685
0.977353
0.975851
0.975934
0.973194
0.973824
0.970964
0.971413
0.970714
0.970835
0.973669
0.972978
0.971119
0.971657
0.970213
0.969815
0.994559
0.994345
0.993854
0.993608
0.990333
0.990313
0.991378
0.991369
0.992807
0.993067
0.990191
0.990191
0.988962
0.988977
0.986257
0.986755
0.985954
0.985919
0.985095
0.985139
0.981624
0.981664
0.968669
0.968613
0.968069
0.96804
0.967988
0.9998
0.999791
0.999952
0.999958
0.999735
1.00029
1.00012
1.00027
1.00014
1.00057
0.99991
1.00036
1.00003
0.999571
0.999646
0.999626
0.999926
0.999926
0.999969
0.999967
0.999988
0.999919
0.999881
0.999776
1.00009
1.00002
0.99993
0.999906
0.99993
1.00001
0.999923
0.999931
0.999802
0.99988
0.999882
1.0003
0.999902
0.999308
0.999816
1.00008
1.00005
0.999603
0.999948
1.00145
0.999724
0.99975
0.999746
0.999754
0.999763
0.99988
0.999862
0.998997
0.999008
0.998443
0.998437
0.993841
0.993881
0.987305
0.987763
0.987774
0.988212
0.981794
0.981651
0.984447
0.983973
0.99147
0.991144
0.995664
0.995704
0.993643
0.993586
0.993496
0.993435
0.994352
0.994409
0.992555
0.992481
0.991846
0.991928
0.98203
0.982189
0.978464
0.978157
0.97729
0.977167
0.984979
0.985104
0.983973
0.984085
0.979987
0.979457
0.97351
0.973376
0.999816
0.999827
0.999815
0.999805
0.999509
0.999527
0.999414
0.999437
0.999557
0.999563
0.999457
0.999451
0.999526
0.999529
0.999702
0.999689
0.99972
0.999704
0.99961
0.999597
0.999607
0.999618
0.999572
0.99956
0.999594
0.999603
0.999674
0.999677
0.999646
0.99964
0.99965
0.999643
0.999632
0.999626
0.99978
0.999772
0.999444
0.999903
1.00064
0.999863
0.999868
0.999937
1.00006
0.999934
0.999791
0.99982
0.999801
0.99997
0.999263
1.00037
1.00012
1.00045
1.0002
0.999526
0.999181
0.999868
1.00061
0.999711
0.999899
0.999851
0.999838
0.999893
0.999735
0.999261
0.999512
1.0002
0.999913
0.999939
1.0001
0.998932
1.00176
0.999934
0.99991
0.999758
0.999769
1.00012
1.0001
1.00005
0.999988
0.99994
0.99995
0.999942
1.00018
0.999952
0.999951
0.999962
0.999971
0.999997
0.999965
0.99979
0.999792
0.999795
0.999786
0.999761
0.999765
0.999774
0.999774
0.999789
0.999775
0.999829
0.999919
0.999916
0.999925
0.999926
0.999899
0.999904
0.999918
0.999874
0.999672
0.999684
0.99978
0.999779
0.999583
0.999583
0.99763
0.99763
0.99762
0.997619
0.999158
0.99919
0.998923
0.998881
0.998881
0.998924
0.999217
0.999244
0.998528
0.998526
0.998694
0.998642
0.99884
0.998842
0.998793
0.998744
0.99923
0.999256
0.998704
0.998711
0.998594
0.998601
0.998906
0.998948
0.999277
0.999304
0.999283
0.99931
0.999306
0.999333
0.999221
0.999188
0.999348
0.999353
0.999316
0.999315
0.999374
0.999347
0.999118
0.99908
0.998938
0.998933
0.998998
0.99904
0.998657
0.998601
0.998768
0.998818
0.996246
0.996097
0.996203
0.996053
0.996608
0.996471
0.997441
0.997438
0.997809
0.997808
0.998339
0.998338
0.998229
0.998158
0.998317
0.998312
0.998293
0.998299
0.998469
0.998475
0.99852
0.998526
0.997862
0.997854
0.998045
0.998037
0.998068
0.99806
0.998223
0.99823
0.997827
0.997819
0.998006
0.998014
0.996866
0.996981
0.996441
0.9963
0.996974
0.996846
0.997599
0.997607
0.997406
0.99731
0.997195
0.997091
0.997117
0.997221
0.997625
0.997711
0.997665
0.997673
0.996452
0.996311
0.996896
0.997009
0.996734
0.996859
0.997015
0.997134
0.996605
0.996623
0.992575
0.992277
0.995196
0.99501
0.995716
0.995702
0.995565
0.995569
0.99591
0.995922
0.989636
0.989246
0.982247
0.981638
0.972992
0.972804
0.976912
0.977634
0.977864
0.977779
0.977372
0.978053
0.977764
0.978441
0.97803
0.978716
0.976597
0.977266
0.97528
0.974633
0.970973
0.970845
0.970856
0.971311
0.972828
0.973526
0.970941
0.971487
0.969616
0.969471
0.969445
0.969297
0.994952
0.994949
0.994342
0.994555
0.993594
0.993838
0.990296
0.990279
0.992326
0.992327
0.992817
0.993069
0.989791
0.989785
0.990197
0.990573
0.988064
0.988521
0.988992
0.989008
0.986526
0.98656
0.983864
0.983961
0.980943
0.980911
0.975168
0.975905
0.976545
0.976538
0.969756
0.96976
0.968274
0.999782
0.999773
0.999828
0.999818
0.999902
0.999968
1.0001
1.00004
0.999847
0.999577
0.999892
1.00029
0.999952
1.00015
1.00022
0.999917
1.00005
1.00004
0.999547
0.998848
0.999801
0.999805
0.999858
0.999863
0.999912
0.999947
0.999943
0.999947
0.999956
0.999955
0.999922
0.999994
1.00005
1.00001
0.999808
0.999893
1.00029
1.0009
0.999924
1.00001
0.999524
0.999349
0.999993
0.999884
0.999754
0.999929
0.999859
0.999881
0.999789
0.999886
0.999671
0.999862
1.00011
0.999659
0.999878
0.999864
0.999923
0.999586
1.0002
1.00021
0.999574
1.00007
1.00014
0.999738
0.999739
0.999799
0.999762
0.999879
0.99985
0.999817
0.999842
0.999726
0.999729
0.999384
0.999406
0.999603
0.999599
0.994092
0.994335
0.994633
0.994862
0.990523
0.990889
0.99053
0.99015
0.983216
0.983593
0.981748
0.981883
0.98351
0.983063
0.99262
0.992896
0.995166
0.995135
0.996362
0.996329
0.995078
0.995125
0.990758
0.991058
0.993793
0.994048
0.994296
0.994239
0.994582
0.994636
0.991685
0.991605
0.992782
0.992852
0.992167
0.992245
0.988854
0.98896
0.982955
0.983095
0.977943
0.978247
0.985983
0.98587
0.98548
0.985605
0.984474
0.984596
0.983353
0.97838
0.977833
0.973705
0.973573
0.999825
0.999813
0.999297
0.9993
0.9996
0.999616
0.999497
0.999518
0.99931
0.999284
0.999584
0.999589
0.999554
0.999561
0.999469
0.999462
0.999479
0.999483
0.99949
0.999491
0.999532
0.999531
0.999705
0.999692
0.999706
0.999704
0.999672
0.999662
0.999639
0.999647
0.999643
0.999633
0.999579
0.999568
0.999566
0.999555
0.999604
0.999595
0.999619
0.999611
0.999668
0.99967
0.999656
0.99965
0.999641
0.999654
0.999668
0.999669
0.999793
1.00018
0.999711
0.999803
0.999799
0.999921
0.999921
0.999991
1.00003
0.999562
0.999856
0.999477
0.999915
1.00005
0.999955
0.999968
0.999683
0.999671
0.999735
0.999823
0.99985
0.999826
0.999868
0.99979
1.00064
0.999972
0.999379
1.00001
0.999835
0.999782
0.999769
1.00026
0.999879
1.00001
0.999949
0.999985
0.999915
0.999966
0.999958
0.999945
0.99981
0.99981
0.999791
0.999794
0.999796
0.999898
0.999912
0.999911
0.999695
0.99968
0.999852
0.999859
0.999709
0.999723
0.999416
0.999439
0.999426
0.999426
0.997116
0.997113
0.997519
0.997516
0.998177
0.998106
0.998521
0.99846
0.999221
0.99871
0.998711
0.998636
0.998637
0.998523
0.998463
0.999226
0.999254
0.999187
0.999193
0.999243
0.999242
0.998469
0.998467
0.998585
0.998584
0.998885
0.998927
0.999013
0.998975
0.999246
0.999274
0.998756
0.998763
0.998644
0.998569
0.998511
0.998953
0.998911
0.99927
0.999297
0.999197
0.999226
0.999246
0.999238
0.999301
0.999327
0.999223
0.999187
0.999336
0.999363
0.999255
0.999285
0.999346
0.999373
0.998632
0.998626
0.998838
0.998886
0.998852
0.9989
0.99886
0.998907
0.999001
0.999042
0.998919
0.998873
0.99876
0.998811
0.998716
0.996792
0.99692
0.996217
0.996068
0.99621
0.99606
0.99716
0.99718
0.997098
0.99734
0.997336
0.997722
0.997721
0.9984
0.998401
0.997934
0.997939
0.998208
0.998205
0.99843
0.998435
0.998255
0.998184
0.9984
0.998394
0.998279
0.998273
0.998412
0.998406
0.998493
0.998499
0.997779
0.997771
0.99812
0.998113
0.998143
0.998135
0.998237
0.997812
0.997894
0.997917
0.997998
0.996362
0.996219
0.99645
0.996311
0.996731
0.996602
0.997285
0.997191
0.997513
0.997504
0.997442
0.997534
0.997301
0.997397
0.99732
0.997416
0.997546
0.997537
0.997372
0.997307
0.997385
0.996716
0.996587
0.996245
0.996387
0.996791
0.996777
0.996981
0.997101
0.996489
0.99635
0.995551
0.995547
0.995231
0.99505
0.99567
0.995834
0.995397
0.995275
0.995421
0.995561
0.996038
0.996048
0.994097
0.993862
0.993137
0.993406
0.989823
0.990193
0.988607
0.988662
0.982815
0.982241
0.974579
0.975024
0.975016
0.97829
0.978997
0.978412
0.979111
0.97716
0.977067
0.978151
0.977478
0.979416
0.980138
0.977944
0.978632
0.976512
0.977179
0.971445
0.971877
0.97096
0.971091
0.972525
0.973214
0.972746
0.973439
0.972255
0.972335
0.970003
0.969865
0.969707
0.969564
0.969528
0.969382
0.995839
0.995839
0.994563
0.994349
0.995518
0.995525
0.990668
0.990686
0.99289
0.992899
0.992323
0.991934
0.991616
0.989376
0.989365
0.990582
0.99021
0.988539
0.988087
0.986884
0.987346
0.984987
0.985045
0.983104
0.983016
0.980872
0.980832
0.975222
0.975179
0.96878
0.968834
0.978073
0.978088
0.970418
0.97042
0.999542
0.999556
0.99967
1.00003
1.00027
0.999688
1.00006
0.999922
0.999857
0.999821
1.00002
0.999767
1.00025
1
1.00001
0.999421
0.999979
0.999652
1.00009
0.99998
0.999511
0.999619
0.9996
0.999846
0.999841
0.999862
0.999865
0.999874
0.999878
1.00003
0.999935
0.999973
0.999978
0.999968
0.999954
0.999948
0.999947
0.99996
0.99996
0.999956
0.999942
0.999972
0.999919
0.999574
0.999973
0.999929
0.999827
1.00007
0.999416
1.00076
0.99998
1.00011
1.0001
1.00002
0.999599
0.999901
0.999866
0.9998
0.999868
0.999871
0.999782
0.999978
0.999987
0.999881
0.999888
0.999896
1.00017
0.999874
1.00014
1.0001
1.00073
0.999919
0.999445
0.999725
0.999711
0.999893
0.999958
0.999918
0.999628
0.99962
0.999733
0.999738
0.999659
0.999954
0.999711
0.999915
0.999874
0.999763
0.999753
0.999793
0.996592
0.996459
0.999409
0.999388
0.999577
0.999579
0.998287
0.99837
0.996143
0.996115
0.995082
0.995081
0.991826
0.991488
0.990971
0.990607
0.988802
0.989216
0.987665
0.987222
0.981921
0.981778
0.98357
0.984054
0.982927
0.983377
0.989895
0.989514
0.992037
0.991731
0.994613
0.994409
0.995195
0.99587
0.995837
0.995462
0.995502
0.995743
0.995014
0.995063
0.993364
0.993309
0.99353
0.994055
0.993996
0.992246
0.992169
0.991763
0.99168
0.990058
0.989963
0.985612
0.985741
0.979208
0.979405
0.980745
0.981231
0.978188
0.978398
0.976862
0.976738
0.98863
0.988725
0.98485
0.985353
0.983844
0.984345
0.975139
0.975016
0.974903
0.975373
0.999785
0.999774
0.999799
0.99981
0.999436
0.999436
0.999327
0.999323
0.999623
0.999637
0.99963
0.999644
0.99935
0.999322
0.999315
0.999289
0.999598
0.999604
0.999571
0.999577
0.999497
0.999503
0.999469
0.999475
0.999442
0.999441
0.999475
0.999475
0.999518
0.999518
0.999543
0.999543
0.999832
0.999842
0.999802
0.999792
0.999651
0.999637
0.999738
0.999732
0.999655
0.999665
0.999634
0.999641
0.999627
0.999637
0.999619
0.99961
0.999592
0.999582
0.999567
0.999556
0.999622
0.999613
0.999603
0.999594
0.999686
0.999685
0.999665
0.99966
0.999646
0.999653
0.999629
0.999788
0.999644
0.999791
0.999658
0.999829
0.999794
0.999794
0.999835
0.999855
0.999925
0.999925
0.999722
0.999671
1.00059
1.00014
1.00032
0.999887
0.999849
1.00023
0.999852
0.999949
0.999951
0.999617
0.999803
0.99962
0.999809
0.999794
0.999727
0.99984
0.998567
1.00003
0.999944
0.999971
1.00008
0.999994
1.00002
1.00005
0.999948
0.999797
0.999798
0.999708
0.999689
0.999846
0.999852
0.999705
0.999719
0.999342
0.999368
0.999563
0.999563
0.997721
0.99772
0.997451
0.997355
0.997214
0.997209
0.997522
0.998107
0.998106
0.998176
0.998175
0.998523
0.998462
0.999151
0.999118
0.999269
0.999297
0.998689
0.99869
0.99858
0.998522
0.998462
0.999079
0.999113
0.999167
0.999131
0.999176
0.999214
0.999215
0.99853
0.998471
0.998591
0.998589
0.998587
0.999044
0.999044
0.99905
0.99915
0.99918
0.998921
0.998927
0.998698
0.99875
0.998625
0.998828
0.99878
0.999044
0.999006
0.999248
0.999242
0.999237
0.999217
0.999262
0.999255
0.999243
0.999243
0.999238
0.999113
0.999073
0.999284
0.999271
0.999254
0.99933
0.999358
0.999286
0.999255
0.998751
0.998756
0.998891
0.998843
0.998904
0.998856
0.998996
0.999038
0.998958
0.99887
0.998916
0.998712
0.998707
0.997182
0.997282
0.996691
0.996558
0.996507
0.99637
0.996346
0.996483
0.996607
0.996471
0.997072
0.996964
0.997233
0.997228
0.997445
0.997345
0.9982
0.9982
0.998269
0.998269
0.998337
0.998401
0.99767
0.997666
0.997985
0.997983
0.998412
0.998415
0.998418
0.998422
0.997999
0.998006
0.998328
0.998335
0.998249
0.998244
0.99844
0.998445
0.99836
0.998367
0.998209
0.998203
0.998451
0.998513
0.998553
0.998559
0.997804
0.997796
0.998165
0.998172
0.998105
0.998179
0.998128
0.998201
0.997902
0.99791
0.996765
0.996641
0.996351
0.996208
0.996155
0.996143
0.996568
0.9967
0.99735
0.997365
0.99709
0.997099
0.997415
0.997405
0.997616
0.997625
0.997263
0.997163
0.997426
0.997331
0.997616
0.997703
0.997553
0.99764
0.997564
0.997658
0.997466
0.997464
0.99657
0.996699
0.996402
0.99626
0.996877
0.996752
0.994339
0.99456
0.994861
0.994695
0.994816
0.995519
0.995347
0.995991
0.996004
0.995373
0.995389
0.995366
0.995732
0.995726
0.99032
0.989952
0.992714
0.992995
0.992861
0.991667
0.991348
0.989508
0.989578
0.987792
0.988225
0.98878
0.988361
0.985021
0.984487
0.980276
0.98091
0.972944
0.97313
0.974319
0.973699
0.978237
0.978948
0.978348
0.979051
0.977956
0.977262
0.979336
0.98007
0.976353
0.977008
0.97203
0.972593
0.972372
0.972915
0.97201
0.97158
0.971227
0.970625
0.971186
0.972594
0.973282