/*--------------------------------*- C++ -*----------------------------------*\
  =========                 |
  \\      /  F ield         | OpenFOAM: The Open Source CFD Toolbox
   \\    /   O peration     | Website:  https://openfoam.org
    \\  /    A nd           | Version:  7
     \\/     M anipulation  |
\*---------------------------------------------------------------------------*/
FoamFile
{
    version     2.0;
    format      ascii;
    class       volScalarField;
    location    "1440";
    object      T;
}
// * * * * * * * * * * * * * * * * * * * * * * * * * * * * * * * * * * * * * //

dimensions      [0 0 0 1 0 0 0];

internalField   nonuniform List<scalar> 
238806
(
0.99874
0.999479
0.998098
1.0002
0.998823
0.999151
0.999122
0.999208
0.998939
0.999262
0.999412
1.00036
0.999569
0.999574
0.999491
0.999163
0.999441
0.999181
0.998915
0.999117
0.999512
0.999525
0.999216
0.999434
0.999909
0.99916
0.999049
0.999418
0.999634
0.998966
0.998864
0.998798
0.999503
0.999467
0.999449
0.999423
1.00007
1.00009
0.998916
0.999457
0.999331
0.99909
0.998885
0.998871
0.999005
0.998943
0.999522
0.999425
0.999454
0.99938
0.999265
0.999259
0.999551
0.999556
1.00001
1.00001
0.999358
0.998597
0.999074
0.999065
0.998778
1.00044
0.999012
0.999453
0.999422
0.99895
0.998993
0.999065
0.999185
0.999189
0.999157
0.999477
0.999498
0.999405
0.99945
0.99937
0.999344
0.999452
0.999427
0.999985
0.999986
0.999401
0.999365
0.99905
0.999036
0.99919
0.999255
0.999463
0.999204
0.999438
0.999371
0.99978
0.998856
0.999103
0.999388
0.999334
0.999313
0.999168
0.999268
0.999782
0.99898
0.999
0.998978
0.999074
0.999049
0.99965
0.999662
0.999455
0.999479
0.999471
0.999484
0.999305
0.999421
0.999302
0.999325
0.999565
0.999547
1.00004
1.00004
1.00005
0.999547
0.999698
0.999141
0.999113
0.999161
0.999095
0.999104
0.999208
0.999384
0.999632
0.99949
0.998847
0.999389
0.999447
0.998244
0.999016
0.99899
0.999009
0.999007
0.999623
0.998993
0.999608
0.999095
0.998698
0.997428
0.998976
0.998968
0.999101
0.999056
0.999085
0.999097
0.99921
0.999212
0.999631
0.999646
0.999517
0.999533
0.999501
0.999522
0.999531
0.999543
0.999381
0.999381
0.999264
0.999269
0.999453
0.999425
0.999981
0.99998
1.00007
1.00009
0.999412
0.999363
0.999761
0.999812
0.999927
0.999047
0.99901
0.999287
0.999299
0.99959
0.999475
0.999527
0.999418
0.999038
0.999218
0.998669
0.998983
0.998913
0.999073
0.998908
0.998903
0.999266
0.999312
0.999675
0.998383
0.999268
0.999781
0.999791
0.999183
0.998888
0.998996
0.998902
0.999061
0.999414
0.998976
0.998912
0.999191
0.999204
0.999149
0.999134
0.999762
0.99976
0.999672
0.999687
0.999591
0.999571
0.999778
0.99961
0.999454
0.999424
0.999396
0.999369
0.999225
0.999407
0.999317
0.999308
0.99945
0.999421
0.99995
0.999947
0.99999
0.99999
0.999996
0.999995
0.999992
0.999992
0.999246
0.999232
0.998386
0.999278
0.999541
0.999565
0.999886
0.999891
0.999202
0.9992
0.999244
0.999235
0.999244
0.999308
0.999166
0.999408
0.999509
0.999677
0.999093
0.999283
0.998607
0.999742
0.99889
0.999355
0.998954
0.998922
0.999402
0.999399
0.999115
0.999065
0.999251
0.999558
0.999449
0.999492
0.999503
0.999537
0.998184
1.00042
0.998893
0.998951
0.999026
0.998905
0.998884
0.999003
0.998996
0.999156
0.998484
0.999101
0.999102
0.999151
0.999155
0.999679
0.999693
0.999632
0.999594
0.999688
0.999701
0.999632
0.99965
0.999546
0.999565
0.999494
0.999494
0.999512
0.999533
0.999584
0.999618
0.9994
0.999423
0.999358
0.999371
0.99938
0.999302
0.999562
0.999561
0.999477
0.999475
0.999462
0.999487
0.999975
0.999973
0.999964
0.999962
0.999985
0.999986
0.999986
0.999986
0.999997
0.999997
0.999992
0.999992
1.00006
0.99946
0.999483
0.999767
0.999683
1.00002
1.00002
0.999695
0.999683
0.999787
0.999878
0.999476
0.999932
0.99918
0.999045
0.999253
0.999254
0.999374
0.999741
0.99896
0.999447
0.998896
0.999509
0.998947
0.998915
0.99583
0.999553
0.999674
0.998906
0.998354
0.998895
0.998937
0.999359
0.999355
0.999011
0.999173
0.997898
0.998908
0.997987
0.999105
0.999419
0.999027
0.999249
0.999661
0.999721
1.00004
0.999243
1.00039
0.999519
0.999106
0.999154
0.999051
0.999118
0.998977
0.999013
0.998992
0.998979
0.998874
0.998603
0.999376
0.99914
0.999221
0.99918
0.999071
0.999077
0.999047
0.999039
0.999156
0.999152
0.999162
0.999183
0.999217
0.999264
0.999743
0.999747
0.999622
0.99961
0.999698
0.999711
0.99965
0.999665
0.999587
0.999611
0.999541
0.999581
0.999533
0.999552
0.999579
0.999555
0.999428
0.999446
0.999352
0.999334
0.999416
0.999074
0.999499
0.999476
0.9995
0.999498
0.999441
0.999966
0.999966
0.99995
0.999947
0.999969
0.999971
0.999975
0.999973
0.99999
0.99999
0.999993
0.999993
0.999997
0.999997
0.999998
0.999998
0.99999
0.999989
0.999343
0.999742
0.99932
0.999609
0.999639
0.999421
0.999677
0.999391
0.999679
1.00001
1.00001
0.999802
0.999811
0.999835
0.999845
0.999843
0.999815
0.999666
0.999585
0.999202
0.999267
0.999149
0.999498
0.9992
0.999196
0.999264
0.999284
0.998984
0.999708
0.999783
0.998734
0.999795
0.999271
0.996617
1.00136
0.999366
0.999
0.999074
0.998885
0.998959
0.998929
0.998942
0.999445
0.999443
0.999361
0.999384
0.999314
0.999337
0.999253
0.999136
0.999235
0.998979
0.999908
0.999378
0.999408
0.99955
0.999165
0.999643
0.999195
0.999667
0.999447
0.999539
0.999373
0.999051
0.999606
1.00028
0.999006
0.999113
0.999043
0.998943
0.998819
0.998836
0.998973
0.998949
0.999078
0.999313
0.999209
0.999223
0.999195
0.999195
0.999129
0.999131
0.999016
0.998942
0.999203
0.999204
0.999188
0.999182
0.999256
0.99925
0.999784
0.999779
0.999607
0.999702
0.99957
0.999556
0.999647
0.999634
0.999674
0.99966
0.999634
0.999618
0.999662
0.999678
0.99961
0.999629
0.999549
0.999588
0.999516
0.999497
0.99955
0.999569
0.999508
0.999503
0.99952
0.999509
0.999447
0.999463
0.999388
0.999311
0.999432
0.999439
0.999289
0.999293
0.999253
0.999445
0.999264
0.999425
0.999474
0.999498
0.999512
0.999532
0.999979
0.99998
0.999974
0.999975
0.999964
0.999961
0.999982
0.999982
0.999986
0.999985
0.999985
0.999985
0.999994
0.999992
0.999993
0.999995
0.999997
0.999997
1
1.00001
1.00007
1.00009
0.999991
0.999989
0.999992
0.999992
0.999317
0.999687
1.00064
0.999368
0.999725
0.999657
0.999415
0.999445
0.999612
0.999472
0.999658
0.999537
1.00001
1.00001
1.00001
1.00001
0.999909
0.999911
0.999872
0.999877
0.999879
0.999875
0.999859
0.99978
0.999933
0.999792
0.999029
0.998743
0.99897
0.999108
0.998951
0.998851
0.99913
0.999121
0.999164
0.99915
0.999273
0.999178
0.999182
0.999666
0.999778
0.999576
0.999351
0.99942
0.998988
0.999452
0.999735
0.99857
0.998347
0.998952
0.999041
1.00054
0.999167
0.999225
0.999089
0.998911
0.998918
0.999467
0.999465
0.999323
0.999349
0.999381
0.999377
0.999099
0.99911
0.999156
0.999388
0.99911
0.999795
0.998508
0.99955
0.999316
0.99938
0.999768
0.998147
1.0003
0.999323
0.9992
0.999356
0.99927
0.999486
0.999727
0.999016
0.999277
0.999169
0.999114
0.998964
0.998953
0.998842
0.998446
0.999417
0.998745
0.999637
0.999295
0.999302
0.999153
0.999048
0.999122
0.999161
0.999236
0.999415
0.999096
0.999087
0.998538
0.999664
0.999242
0.999236
0.999181
0.999185
0.999209
0.999195
0.999708
0.999694
0.999741
0.999748
0.999758
0.999761
0.999666
0.999656
0.999583
0.999567
0.999587
0.999574
0.999631
0.999618
0.999674
0.999686
0.999615
0.999598
0.999623
0.999641
0.999581
0.999604
0.999494
0.999475
0.999547
0.999533
0.99955
0.999562
0.999403
0.999417
0.999375
0.999415
0.999401
0.999408
0.999339
0.999348
0.999807
0.999152
0.999159
0.999458
0.999524
0.99952
0.999521
0.99946
0.999441
0.999528
0.999508
0.99969
0.999675
0.99998
0.99998
0.999978
0.999979
0.999979
0.999979
0.999957
0.99996
0.999971
0.999969
0.999974
0.999973
0.999991
0.99999
0.99999
0.999989
0.999992
0.999992
0.999992
0.999992
0.999993
0.999992
0.999995
0.999995
0.999996
0.999997
0.999996
0.999996
1
0.999998
1.00001
1.00001
1.00007
1.00009
1.00006
1.00009
0.999992
0.999991
1.00004
1.00003
1.00004
0.999423
0.999492
0.999116
0.997546
1.00073
0.999106
0.999137
0.998172
0.999459
0.999632
0.999617
0.9995
0.999525
0.999476
0.999457
0.999216
0.999112
0.999424
0.999318
0.999922
0.999935
1
1
1.00001
1.00001
1.00001
1.00001
1.00001
1.00001
0.99986
0.999853
0.999785
0.999794
0.999865
0.99987
0.999882
0.999886
0.999866
0.99987
0.99982
0.999936
0.999812
0.999857
0.999853
0.999091
0.999312
0.998843
0.997914
0.999209
0.999641
0.998535
0.998812
0.998936
0.999046
0.99923
0.999163
0.999286
0.999284
0.999234
0.999199
0.999481
0.999207
0.999578
0.999748
0.999264
0.99939
0.999445
0.999844
0.999232
0.998918
0.999078
0.999045
0.997927
0.997764
0.998819
0.998745
0.998966
0.998965
0.999424
0.999421
0.99937
0.999393
0.998818
0.999098
0.999123
0.999158
0.998914
0.998818
1.00012
0.999375
0.998465
0.999581
0.999872
0.999112
0.999463
0.999393
0.99956
0.999411
0.999504
0.999709
0.99924
0.998062
0.998936
0.999086
0.998718
0.998645
0.999097
0.999187
0.999385
0.99935
0.998899
0.998885
0.999245
0.999246
0.999453
0.999205
0.999153
0.999105
0.99914
0.999055
0.999052
0.999233
0.999108
0.999235
0.999238
0.999206
0.999196
0.999768
0.999774
0.999772
0.999768
0.999757
0.999735
0.999645
0.999658
0.999573
0.999552
0.999537
0.999628
0.999638
0.999658
0.999645
0.999587
0.999605
0.999536
0.999521
0.999486
0.999481
0.99959
0.999599
0.999531
0.99954
0.999463
0.999476
0.999392
0.999388
0.999423
0.999433
0.99939
0.999393
0.999267
0.999264
0.999262
0.99926
0.999399
0.999356
0.999312
0.999541
0.999541
0.999467
0.999456
0.999525
0.999505
0.99998
0.99998
0.99998
0.99998
0.999979
0.999979
0.999976
0.999976
0.999954
0.999951
0.99996
0.999957
0.999971
0.999969
0.999981
0.999982
0.999984
0.999984
0.999986
0.999986
0.99999
0.99999
0.99999
0.99999
0.999994
0.999995
0.999992
0.999992
0.999994
0.999994
0.999992
0.999992
0.999993
0.999993
0.999996
0.999996
0.999995
0.999995
0.999997
0.999996
0.999996
0.999996
0.999999
0.999999
1.00001
1.00001
1.00007
1.00009
1.00002
1.00001
0.99999
0.99999
0.999991
0.999991
0.999991
0.999992
0.999993
0.999994
0.999709
0.999028
0.99876
0.99928
0.999383
1.00006
0.999627
0.999813
0.998121
0.999919
0.999927
0.999153
0.999224
0.999799
0.999644
0.999654
0.999648
0.999366
0.99941
0.99915
0.999647
0.999166
0.999513
0.999832
0.999845
0.999946
0.999945
0.999977
0.999963
1.00001
1.00001
1.00001
1.00001
1.00001
1.00001
1.00001
1.00001
1.00001
1.00001
0.999681
0.999673
0.999949
0.999949
0.999899
0.999902
0.99971
0.999701
0.999817
0.999809
0.999881
0.999876
0.999861
0.999866
0.999858
0.999912
0.999846
0.999859
0.999873
0.999638
0.999177
0.99911
0.999266
0.998933
0.999119
0.999259
0.99918
0.999153
0.999256
0.999261
0.999675
0.998734
0.998961
0.999197
0.999426
0.999633
0.999773
0.999689
0.999411
0.999082
0.999077
0.999362
0.999421
0.999808
0.998668
0.999605
0.998895
0.998932
0.99892
0.999167
0.998886
0.998653
0.999142
0.998822
0.999369
0.999402
0.999435
0.999428
0.99934
0.999315
0.999181
0.999197
1.00046
0.999038
0.999556
0.999653
0.998682
0.999253
0.999052
0.999426
0.999747
0.998777
0.999028
0.999523
0.999578
0.999553
0.999302
0.999477
0.999425
0.999396
0.999718
0.999024
0.998316
0.998037
0.999054
0.999009
0.998848
0.998906
0.998966
0.998966
0.999218
0.999195
0.999293
0.999749
0.999171
0.999166
0.999163
0.998853
0.999131
0.99913
0.999081
0.999079
0.999203
0.999206
0.999743
0.999751
0.999702
0.999715
0.999755
0.99976
0.999727
0.999748
0.999622
0.999635
0.999584
0.999635
0.999585
0.999601
0.999605
0.999593
0.99957
0.999553
0.999559
0.999617
0.999583
0.999596
0.999501
0.999489
0.999469
0.999485
0.999416
0.999407
0.999445
0.999453
0.999364
0.999371
0.999293
0.999296
0.999332
0.999329
0.999307
0.999311
0.999541
0.999543
0.99956
0.999558
0.999484
0.999484
0.999979
0.999979
0.99998
0.99998
0.999978
0.999977
0.999967
0.999966
0.999977
0.999976
0.99995
0.999949
0.999954
0.999954
0.999962
0.999965
0.999967
0.999967
0.999974
0.999973
0.999982
0.999981
0.99999
0.999991
0.999985
0.999985
0.999988
0.999988
0.99999
0.99999
0.999992
0.999992
0.999992
0.999993
0.999992
0.999992
0.999992
0.999991
0.999994
0.999994
0.999992
0.999992
0.999992
0.999992
0.999995
0.999995
0.999995
0.999996
0.999995
0.999995
0.999995
0.999995
0.999996
0.999996
0.999994
0.999994
0.999995
0.999995
1.00001
1.00001
1
1
1.00001
1.00001
1.00004
1.00004
1.00007
1.00009
1.00003
1.00004
0.99999
0.99999
0.999992
0.999992
0.999992
0.999992
0.999992
0.999992
0.999992
0.999992
0.999995
0.999995
1.00003
1.00003
0.999213
0.998967
0.999597
0.999412
0.999154
0.999293
0.999362
0.999231
0.998922
0.997848
1.00008
0.999576
0.999565
0.999114
0.999295
0.999668
0.999832
0.999451
0.999592
0.999592
0.999485
0.999448
0.999971
0.999312
1.00008
0.999039
0.999653
0.999648
0.999523
0.999829
0.999868
0.999936
0.999923
1.00002
1.00002
0.999938
0.999913
1
1
1.00001
1.00001
1.00001
1.00001
1.00001
1.00001
1.00001
1.00001
0.999752
0.999741
0.999713
0.999704
0.999948
0.99995
0.999937
0.999933
0.999922
0.999916
0.999912
0.999913
0.999801
0.999792
0.999881
0.999885
0.999895
0.999899
0.999858
0.999863
0.99987
0.999864
0.999829
0.999835
0.998924
0.999206
0.999063
0.999096
0.999173
0.999358
0.999005
0.998928
0.999196
0.999222
0.99923
0.999233
0.999386
0.999268
0.999238
0.99928
0.999134
0.999352
0.999888
0.998837
0.999463
0.999592
0.999528
0.999325
0.999395
0.998932
0.999268
0.999122
0.999121
0.998348
0.998972
0.999475
0.99947
0.999405
0.999413
0.998899
0.998839
0.999168
0.99922
0.999551
0.999078
0.999448
0.999649
0.998832
0.999472
0.999212
0.99966
0.999056
0.999592
0.998834
0.999508
1.00006
0.999575
0.999568
0.999769
0.999765
0.99933
0.999337
0.999028
0.999378
0.999306
0.999618
0.999184
0.999639
0.999641
0.999503
1.00004
0.998614
0.999644
0.998771
0.998993
0.998973
0.998839
0.999403
0.998486
0.999023
0.999046
0.99899
0.998981
0.999181
0.999166
0.99894
0.999147
0.999233
0.999197
0.999157
0.999186
0.9991
0.999098
0.999729
0.999739
0.999781
0.999791
0.999725
0.999734
0.999713
0.999641
0.999775
0.999444
0.999774
0.999766
0.999396
0.999825
0.999608
0.999716
0.999602
0.999616
0.999566
0.999547
0.999581
0.999575
0.999572
0.999582
0.999458
0.999443
0.999488
0.999503
0.999394
0.999383
0.999371
0.999377
0.999323
0.999326
0.999271
0.999283
0.999521
0.999522
0.999944
0.999944
0.999981
0.999981
0.999983
0.999984
0.999978
0.999979
0.999974
0.999975
0.999964
0.999966
0.999984
0.999984
0.999969
0.999971
0.99996
0.999958
0.999964
0.999959
0.999959
0.999957
0.999971
0.999969
0.999965
0.999962
0.999967
0.999974
0.999973
0.999976
0.999973
0.999975
0.999981
0.999983
0.999993
0.999993
0.99999
0.99999
0.999988
0.999988
0.999987
0.999987
0.999985
0.999985
0.999986
0.999985
0.999991
0.999991
0.999991
0.999991
0.999993
0.999993
0.999994
0.999994
0.999993
0.999991
0.999991
0.999991
0.999993
0.999993
0.999992
0.999993
0.999994
0.999994
0.999996
0.999996
0.999995
0.999995
0.999995
0.999995
0.999996
0.999996
0.999997
0.999997
0.999993
0.999993
0.999995
0.999994
0.999996
0.999995
0.999995
0.999999
0.999998
1.00001
1.00001
1
0.999999
1.00001
1.00001
1.00001
1.00001
1.00002
1.00002
1.00004
1.00004
1.00005
1.00005
1.00003
1.00003
1.00006
1.00009
0.99999
0.999989
0.99999
0.999991
0.999991
0.999991
0.999992
0.999992
0.999992
0.999992
0.999992
0.999992
0.999994
0.999994
1
1
1.00005
1.00006
0.999815
0.999882
0.999661
0.999569
0.999051
0.999556
0.999363
0.999397
0.999248
0.999661
0.999255
0.997328
0.999675
0.99969
0.999399
0.999457
0.999049
0.99891
0.999218
0.999234
0.99961
0.999678
0.999434
0.999325
0.999522
0.9995
0.998836
0.999448
0.999446
0.999491
0.999093
0.999181
0.999033
0.99988
0.999464
0.9991
0.999957
0.999944
0.99984
0.999829
0.999981
0.999938
1.00003
1.00003
1.00002
1.00002
0.999935
0.999908
1
1
1.00001
1.00001
1.00001
1.00001
1.00001
1.00001
1.00001
1.00001
1.00001
1.00001
1
1
1.00001
1.00001
1.00002
1.00002
0.999676
0.999664
0.999689
0.999678
0.99991
0.999914
0.999921
0.999926
0.999964
0.999897
0.999926
0.99991
0.999908
0.999755
0.999765
0.99984
0.999847
0.999875
0.99988
0.999891
0.999895
0.999894
0.999891
0.999827
0.999835
0.999865
0.999868
0.999875
0.999857
0.999736
0.999711
0.998509
0.999189
0.999226
0.999164
0.999
0.999136
0.998962
0.999015
0.999225
0.999246
0.999145
0.999105
0.999091
0.99937
0.99953
0.999519
0.999498
0.999911
0.999074
0.998996
0.999449
0.999456
0.998883
0.999251
0.999151
1.00004
0.998746
0.99844
0.998577
0.99959
0.999617
0.99904
0.998798
0.999529
0.999657
0.999145
0.99938
0.999644
0.999569
0.999241
0.999254
0.999399
0.999374
0.999458
0.999416
0.99959
0.999293
0.998893
1.00047
0.998773
0.998628
0.998872
0.999931
0.99887
0.998591
0.998911
0.998922
0.998936
0.998747
0.999025
0.999014
0.998998
0.999001
0.999191
0.999197
0.999192
0.999201
0.999163
0.999225
0.999658
0.999671
0.999701
0.999714
0.999748
0.999759
0.999771
0.999732
0.999725
0.999732
0.999754
0.999734
0.999695
0.999558
0.99967
0.999686
0.999765
0.999479
0.99947
0.999535
0.999526
0.999608
0.999617
0.999436
0.999421
0.999398
0.999403
0.999398
0.999386
0.999951
0.999955
0.999898
0.999899
0.999986
0.999986
0.999958
0.999954
0.999968
0.999966
0.999981
0.999981
0.999974
0.999975
0.999977
0.999978
0.999976
0.999959
0.999957
0.999983
0.999983
0.999983
0.999984
0.999968
0.999966
0.999954
0.999952
0.999953
0.999954
0.999953
0.999953
0.999951
0.999947
0.999954
0.999966
0.999966
0.999964
0.999962
0.999974
0.999973
0.999976
0.999976
0.999985
0.999984
0.999982
0.999981
0.999992
0.999992
0.99999
0.99999
0.999988
0.999989
0.999988
0.999983
0.999983
0.99999
0.99999
0.999989
0.999988
0.999987
0.999987
0.999989
0.999989
0.99999
0.99999
0.999991
0.999991
0.999993
0.999993
0.999993
0.999994
0.999993
0.999992
0.999993
0.999992
0.999992
0.999993
0.999993
0.999992
0.999992
0.999993
0.999993
0.999994
0.999995
0.999994
0.999996
0.999996
0.999995
0.999995
0.999995
0.999996
0.999996
0.999996
0.999996
0.999996
0.999992
0.999992
0.999994
0.999994
0.999995
0.999995
0.999996
0.999995
0.999996
0.999996
0.999997
0.999997
1.00001
1.00001
1.00001
1
0.999999
1
1
1.00001
1
1.00001
1.00001
1.00002
1.00002
1.00004
1.00004
1.00005
1.00005
1.00001
1.00002
1.00003
1.00003
1.00004
1.00005
0.99999
0.99999
0.999992
0.999992
0.999991
0.99999
0.999991
0.999991
0.999991
0.999992
0.999991
0.999991
0.999992
0.999992
0.99999
0.99999
0.999993
0.999992
0.999994
0.999994
0.999994
0.999994
1.00008
1.00008
1.00005
1.00005
1.00006
0.99978
0.99979
0.999024
0.999058
0.999146
0.999682
0.999545
0.999754
0.999544
0.999959
0.999217
0.999701
0.999395
0.998914
0.99992
0.999927
0.999536
0.999546
0.999196
0.999224
0.999031
0.99896
0.998863
0.998735
0.999156
0.999072
0.999115
0.999103
0.999664
0.999715
0.999502
0.99949
0.999451
0.999545
0.999562
0.999671
0.999306
0.998706
0.999076
0.999304
0.999478
0.999015
0.999403
1.00063
0.998879
0.998902
0.99988
0.999879
0.999878
0.999889
0.999906
0.999991
0.999991
1.00003
1.00003
1.00002
1.00002
1.00001
1.00001
1.00002
1.00002
0.999931
0.999904
1.00001
1
1
1
1.00001
1.00001
1.00001
1.00001
1.00001
1.00001
1.00001
1.00001
1.00001
1.00001
1.00001
1.00001
1
1
1
1
1.00001
1.00001
1.00001
1.00001
1.00001
1.00001
1.00001
1.00001
1.00005
1.00006
0.999699
0.999688
0.99971
0.99972
0.999913
0.999908
0.999927
0.999923
0.999895
0.999891
0.999923
0.999923
0.999907
0.999905
0.999826
0.999835
0.9998
0.99977
0.999874
0.999879
0.999875
0.999869
0.999892
0.999896
0.999887
0.999883
0.999834
0.999827
0.999853
0.999859
0.999855
0.99986
0.999865
0.99987
0.999708
0.999716
0.998634
0.999086
0.999843
0.999129
0.999157
0.999083
0.999209
0.999211
0.99963
0.999723
0.99969
0.999063
0.998352
0.999442
0.999359
0.999714
0.999675
0.99898
0.998452
0.999164
0.999913
0.999121
0.999489
0.999688
0.999674
0.999582
0.999455
0.998986
0.998917
0.999635
0.999453
0.999464
0.999324
0.998176
1.00101
0.999068
0.999053
0.99881
0.998793
0.999194
0.999167
0.999138
0.99909
0.998933
0.998941
0.998906
0.999136
0.999039
0.999032
0.998996
0.999004
0.99925
0.999233
0.999721
0.99971
0.999724
0.999736
0.999763
0.999755
0.999684
0.999712
0.999733
0.999723
0.999649
0.999493
0.9995
0.999462
0.999456
0.999562
0.999554
0.999326
0.999284
0.999854
0.99985
0.999783
0.999785
0.999904
0.999904
0.999987
0.999987
0.999985
0.999985
0.999955
0.999953
0.999973
0.999974
0.999972
0.999971
0.999957
0.999956
0.999982
0.999982
0.99998
0.99998
0.999976
0.999977
0.999977
0.999979
0.999959
0.999957
0.999982
0.999982
0.999983
0.999984
0.999975
0.999974
0.999956
0.999953
0.999955
0.999952
0.999955
0.99995
0.999956
0.999964
0.999949
0.999949
0.999954
0.999953
0.999948
0.999951
0.999969
0.999971
0.999976
0.999976
0.999975
0.999973
0.999984
0.999985
0.999982
0.999981
0.999993
0.999993
0.999992
0.999992
0.999991
0.999991
0.999988
0.999988
0.999986
0.999986
0.999984
0.999984
0.999986
0.999987
0.999986
0.999986
0.999988
0.999988
0.999985
0.999985
0.999986
0.999986
0.999991
0.999991
0.999991
0.999991
0.999991
0.999991
0.99999
0.999991
0.999993
0.999993
0.999992
0.999992
0.999994
0.999994
0.999994
0.999994
0.999994
0.999993
0.999991
0.999991
0.999993
0.999993
0.999993
0.999994
0.999994
0.999994
0.999993
0.999993
0.999994
0.999994
0.999996
0.999996
0.999995
0.999994
0.999996
0.999996
0.999996
0.999996
0.999996
0.999996
0.999993
0.999993
0.999995
0.999995
0.999995
0.999994
0.999994
0.999995
0.999995
0.999996
0.999999
0.999999
1
1
1.00007
1.00007
1
1
1
1
1
1
1
1
1
1
1.00001
1
1.00001
1.00001
1.00006
1.00009
1.00004
1.00004
1.00002
1.00001
1.00003
1.00003
1.00006
1.00009
1.00006
1.00009
0.999989
0.999989
0.99999
0.99999
0.999992
0.999992
0.99999
0.99999
0.999991
0.999991
0.999991
0.999991
0.999992
0.999991
0.999992
0.999992
0.999992
0.999992
0.999992
0.999992
0.999992
0.999992
0.999994
0.999993
0.999995
0.999994
1
1
0.999996
0.999995
1.00002
1.00002
1.00004
0.999801
0.99981
0.999669
0.999688
0.999021
0.999116
0.999628
0.999561
0.999186
0.998947
0.999328
0.999745
0.999232
0.999421
0.999464
0.999171
0.999383
0.999343
0.998696
0.997963
0.999775
0.99979
0.999735
0.999728
0.999498
0.999514
0.999404
0.99944
0.999197
0.999165
0.998987
0.999061
0.99912
0.999061
0.998788
0.998852
0.999364
0.999998
0.998896
0.998991
0.99868
0.998511
0.999645
0.999559
0.999421
0.999511
0.999492
0.999483
0.999283
0.999344
0.99904
0.999205
0.999435
0.998954
0.99915
0.999178
0.999503
0.999151
0.999806
0.999528
0.998886
0.999614
0.999673
0.999898
0.999886
0.99994
0.99989
0.999882
0.999871
0.999938
0.99993
0.999971
0.999972
0.999961
0.999959
0.999942
0.999943
1.00002
1.00002
1.00003
1.00003
1.00002
1.00002
1.00002
1.00002
0.999964
0.999978
0.999953
0.99995
0.999999
0.999992
1
1
1
1
1.00001
1.00001
1.00001
1.00001
1.00001
1
1.00001
1.00001
1.00001
1.00001
1.00001
1.00001
1.00001
1.00001
1.00001
1.00001
1.00001
1.00001
1.00001
1.00001
1.00001
1.00001
1.00001
1.00001
1
1
1.00001
1.00001
1.00001
1.00001
1.00001
1.00001
1.00001
1.00005
1.00006
0.999696
0.999706
0.999948
0.999948
0.999876
0.99987
0.999909
0.999904
0.999942
0.999945
0.999883
0.999879
0.999893
0.99989
0.999921
0.999921
0.999919
0.999917
0.999919
0.999918
0.999907
0.999908
0.999825
0.999835
0.999802
0.999788
0.999834
0.999841
0.999857
0.99985
0.999853
0.999859
0.999888
0.999892
0.999897
0.999901
0.999882
0.999886
0.999875
0.999878
0.999839
0.999831
0.999849
0.999854
0.999861
0.999863
0.999645
0.99962
0.999689
0.999409
0.998917
0.999701
0.999714
0.999417
0.999439
0.999284
0.999302
0.998624
0.999504
0.999088
0.999466
0.99948
0.999362
0.999301
0.999615
0.999573
0.999579
0.999638
0.999584
0.999599
0.999291
0.999194
0.999841
0.999193
0.998555
0.99913
0.998917
0.998871
0.998881
0.999391
0.998928
0.999079
0.998951
0.998981
0.99887
0.998922
0.999017
0.999011
0.999688
0.999674
0.999727
0.999715
0.999725
0.999819
0.999513
0.999522
0.999847
0.999849
0.99966
0.999644
0.999843
0.999833
0.999938
0.999935
0.99994
0.99994
0.999988
0.999989
0.999985
0.999985
0.999981
0.999982
0.999977
0.999978
0.99995
0.999975
0.999975
0.99998
0.99998
0.999981
0.999982
0.999956
0.999955
0.999957
0.999958
0.999956
0.999957
0.999983
0.999983
0.999981
0.999981
0.999975
0.999974
0.999971
0.999973
0.999958
0.999957
0.99998
0.99998
0.999983
0.999983
0.999984
0.999974
0.999975
0.999956
0.999953
0.999962
0.999959
0.999955
0.999953
0.999954
0.99995
0.999959
0.999965
0.999952
0.999948
0.999959
0.999956
0.999951
0.999947
0.999984
0.999984
0.999979
0.999978
0.999979
0.999978
0.999979
0.999978
0.999975
0.999973
0.999978
0.99998
0.999982
0.999981
0.999983
0.999992
0.999991
0.999992
0.999992
0.999992
0.999992
0.99999
0.999987
0.999992
0.999988
0.999988
0.999987
0.999987
0.999983
0.999983
0.999989
0.999989
0.999986
0.999985
0.999984
0.999985
0.999987
0.999988
0.999986
0.999986
0.999988
0.999987
0.999986
0.999986
0.999988
0.999988
0.999992
0.999992
0.99999
0.99999
0.999991
0.999991
0.999991
0.999993
0.999992
0.999993
0.999992
0.999995
0.999995
0.999994
0.999994
0.999994
0.999994
0.999993
0.999992
0.999991
0.999991
0.999992
0.999992
0.999993
0.999993
0.999994
0.999993
0.999994
0.999993
0.999993
0.999994
0.999995
0.999996
0.999996
0.999995
0.999995
0.999995
0.999995
0.999996
0.999997
0.999997
0.999997
0.999992
0.999992
0.999996
0.999994
0.999994
0.999994
0.999995
0.999994
0.999996
0.999997
0.999995
0.999995
0.999999
0.999999
0.999998
0.999997
0.999999
0.999999
0.999998
0.999998
1
1
1.00002
1.00001
1.00002
0.999999
0.999998
0.999999
0.999998
1
1
1
1
1
1
1
1
1.00001
1
1.00004
1.00004
1.00005
1.00005
1.00002
1.00001
1.00002
1.00001
1.00002
1.00002
1.00007
1.00009
1.00006
1.00009
1.00006
1.00009
0.999988
0.999988
0.99999
0.99999
0.999991
0.999991
0.999991
0.999991
0.999991
0.999991
0.999991
0.999992
0.999992
0.999992
0.999992
0.999993
0.999992
0.999992
0.999992
0.999991
0.99999
0.999993
0.999993
0.999992
0.999994
0.999995
0.999995
1
1
1.00006
1.00006
0.999994
0.999994
1.00001
1.00002
0.999939
0.999934
0.999147
0.999493
0.999766
0.999461
0.999872
0.999096
0.999001
0.999106
0.999336
0.99906
0.99951
0.999395
0.999381
0.99885
0.999405
0.999089
0.999535
0.999388
0.998743
0.999945
0.99995
0.999766
0.999764
0.999675
0.999657
0.999711
0.99971
0.999399
0.999331
0.999492
0.999526
0.999495
0.999462
0.999386
0.999417
0.99917
0.9992
0.999227
0.999034
0.999067
0.998883
0.998535
0.999021
0.998953
0.998828
0.999189
0.998547
0.999908
0.999061
0.999218
0.999143
0.999045
0.998649
0.998924
0.999686
0.999622
0.999547
0.999579
0.999416
0.999622
0.999608
0.999462
0.999489
0.999411
0.999734
0.999299
0.999539
0.999546
1.00006
0.999517
0.999085
0.999628
0.99959
0.999165
0.999351
0.999266
0.999963
0.999961
0.999899
0.99989
0.999776
1.00006
0.999839
0.999933
0.999886
0.999941
0.99994
0.999947
0.999997
0.999998
0.999959
0.999961
0.999949
0.999946
1.00003
1.00003
1.00002
1.00001
1.00003
1.00003
1.00003
1.00003
1.00002
1.00002
1.00002
1.00002
1.00002
1.00002
0.999928
0.9999
1
1.00001
0.999993
0.999999
1
1
1
1
1
0.999999
1
1.00001
1.00001
1.00001
1.00001
1.00001
1.00001
1.00001
1.00001
1.00001
1.00001
1.00001
1.00001
1.00001
1.00001
1.00001
1.00001
1.00001
1.00001
1.00001
1.00001
0.999991
0.999987
1.00001
1.00001
1.00001
1.00001
1.00002
1.00002
1
1
1.00001
1.00001
1.00001
1.00001
1.00003
1.00004
1.00003
1.00002
0.999751
0.999762
0.999726
0.999715
0.999935
0.999936
0.999945
0.999946
0.999865
0.999859
0.999863
0.999856
0.999936
0.99994
0.999941
0.999944
0.999879
0.999874
0.999889
0.999886
0.999912
0.99991
0.999919
0.999919
0.999927
0.999928
0.999922
0.99992
0.999912
0.999912
0.999905
0.999905
0.999669
0.999656
0.999706
0.999717
0.999852
0.999858
0.999766
0.999776
0.999846
0.99984
0.999861
0.999855
0.999864
0.999858
0.999869
0.999874
0.999884
0.999888
0.999896
0.999899
0.999872
0.999876
0.999882
0.999886
0.999814
0.999823
0.999838
0.999845
0.999857
0.999852
0.999544
0.999698
0.999563
0.99972
0.999546
0.999731
0.999712
0.999726
0.999507
0.999545
0.999425
0.999402
0.998876
0.998829
0.999756
0.999234
0.999391
0.999475
0.999476
0.99976
0.99939
0.999401
0.999379
0.999481
0.999662
0.999489
0.999688
0.999546
0.999511
0.999606
0.997766
0.999198
0.99898
0.998997
0.999143
0.999052
0.999108
0.999026
0.99893
0.999703
0.999691
0.999847
0.999844
0.99967
0.999653
0.999845
0.999836
0.999949
0.999945
0.99991
0.99991
0.999987
0.999987
0.999986
0.999987
0.999986
0.999986
0.999985
0.999982
0.999982
0.999981
0.999981
0.999977
0.999978
0.999951
0.999958
0.999949
0.999946
0.999979
0.999979
0.999981
0.99998
0.999981
0.999965
0.999963
0.999966
0.999949
0.999968
0.999958
0.999958
0.999982
0.999983
0.999982
0.999981
0.999981
0.999968
0.999969
0.99997
0.999965
0.999963
0.999976
0.999976
0.999981
0.99998
0.999982
0.999978
0.999979
0.99997
0.999972
0.999958
0.999958
0.999955
0.999964
0.999957
0.999957
0.999954
0.999979
0.999948
0.999969
0.999971
0.999959
0.999974
0.999938
0.999951
0.999948
0.999956
0.999959
0.999982
0.999982
0.999978
0.999979
0.999978
0.999979
0.999974
0.999973
0.999977
0.99998
0.999978
0.999983
0.999983
0.99999
0.99999
0.999993
0.999993
0.999992
0.999992
0.999992
0.999992
0.99999
0.999991
0.99999
0.99999
0.999989
0.999989
0.999988
0.999988
0.999984
0.999984
0.999984
0.999984
0.999984
0.999983
0.99999
0.999989
0.999987
0.999987
0.999984
0.999984
0.999984
0.999984
0.99999
0.99999
0.999987
0.999987
0.999987
0.999987
0.999985
0.999985
0.999987
0.999987
0.999988
0.999988
0.999987
0.999986
0.999987
0.999987
0.999992
0.999992
0.999989
0.999989
0.99999
0.99999
0.999991
0.99999
0.999992
0.999992
0.999995
0.999995
0.999995
0.999995
0.999994
0.999994
0.999993
0.999993
0.999993
0.999992
0.999994
0.999991
0.999992
0.999991
0.999991
0.999991
0.999994
0.999994
0.999993
0.999994
0.999993
0.999992
0.999994
0.999993
0.999994
0.999994
0.999995
0.999993
0.999996
0.999995
0.999995
0.999996
0.999996
0.999996
0.999992
0.999992
0.999991
0.999994
0.999995
0.999994
0.999995
0.999994
0.999994
0.999995
0.999996
0.999996
0.999995
0.999995
0.999996
0.999996
0.999997
0.999997
0.999998
0.999999
0.999999
0.999999
1
0.999996
0.999995
1
1
1
1
1
1
1.00005
1.00005
1.00002
1.00003
0.999999
0.999997
0.999999
0.999998
1
1
1
0.999999
1
1
1.00003
1.00002
1.00003
1.00002
1.00004
1.00004
1.00005
1.00003
1.00003
1.00002
1.00001
1.00002
1.00001
1.00007
1.00009
1.00004
1.00005
1.00005
1.00004
0.99999
0.999989
0.999988
0.999989
0.999989
0.999989
0.999989
0.999992
0.999992
0.999991
0.999991
0.99999
0.999991
0.999991
0.999991
0.999991
0.999991
0.999992
0.999992
0.999992
0.999992
0.999991
0.999991
0.999992
0.999992
0.999992
0.999993
0.999991
0.99999
0.99999
0.99999
0.999994
0.999994
0.999993
0.999994
0.999993
0.999993
0.999996
0.999996
0.999995
0.999995
0.999996
0.999996
0.999996
0.999996