/*--------------------------------*- C++ -*----------------------------------*\
  =========                 |
  \\      /  F ield         | OpenFOAM: The Open Source CFD Toolbox
   \\    /   O peration     | Website:  https://openfoam.org
    \\  /    A nd           | Version:  7
     \\/     M anipulation  |
\*---------------------------------------------------------------------------*/
FoamFile
{
    version     2.0;
    format      ascii;
    class       volScalarField;
    location    "0.01";
    object      p;
}
// * * * * * * * * * * * * * * * * * * * * * * * * * * * * * * * * * * * * * //

dimensions      [0 2 -2 0 0 0 0];

internalField   nonuniform List<scalar> 
238806
(
7.84792e-07
7.71439e-07
1.09865e-07
2.77746e-07
1.81908e-07
7.49672e-07
7.58079e-07
8.01009e-07
8.79077e-07
2.98843e-07
3.14078e-07
4.26849e-07
1.02565e-07
9.75553e-08
1.36406e-08
5.0023e-09
2.72562e-07
2.31885e-07
2.24324e-06
2.259e-06
1.35286e-07
1.24686e-07
1.28174e-08
5.22187e-08
7.62595e-08
2.4032e-07
1.79635e-07
2.40875e-07
7.2858e-08
-1.66713e-08
2.00925e-06
2.21938e-06
1.09436e-07
1.32082e-07
1.7959e-07
1.97341e-07
2.88248e-10
3.33432e-10
2.79774e-07
3.91304e-07
3.38128e-07
1.42919e-07
2.53282e-06
2.76523e-06
2.03016e-06
2.0127e-06
4.0718e-09
2.41531e-08
1.55128e-07
1.77616e-07
3.3672e-07
3.47241e-07
1.12388e-07
1.06726e-07
-1.53169e-08
-1.55159e-08
3.09972e-07
2.09974e-07
3.03156e-07
3.81763e-07
3.26961e-07
4.85947e-07
3.56299e-07
4.07685e-07
4.45492e-07
1.82095e-06
1.82389e-06
9.87812e-07
9.0282e-07
5.36235e-07
4.84652e-07
1.19175e-07
9.89779e-08
1.7111e-07
1.48547e-07
2.64285e-07
2.4921e-07
1.79435e-07
1.96933e-07
8.60086e-10
3.65892e-10
4.11794e-08
7.20741e-08
1.2233e-06
1.27626e-06
5.27903e-07
4.82401e-07
1.86992e-07
1.13222e-07
2.25016e-07
1.91702e-07
4.85377e-07
3.69542e-07
2.14914e-06
2.10088e-06
3.7211e-07
4.04137e-07
2.33393e-07
1.96668e-07
8.7921e-08
1.80284e-06
9.87963e-07
9.40815e-07
8.4062e-07
8.44017e-07
6.65915e-08
5.94092e-08
1.49958e-07
1.31805e-07
1.25927e-07
1.0374e-07
2.60655e-07
2.83391e-07
3.13914e-07
3.03969e-07
1.06784e-07
1.17077e-07
-4.37639e-10
-2.22297e-11
-4.49672e-10
-1.72901e-07
-1.7259e-07
1.0328e-06
9.89538e-07
8.22856e-07
8.3186e-07
-3.64511e-08
-5.35822e-08
1.46091e-07
1.62167e-07
4.08144e-07
1.46351e-07
2.02693e-07
1.27406e-07
3.04536e-07
4.4673e-07
1.98863e-06
2.2063e-06
-1.33719e-07
6.63744e-08
-4.085e-09
6.08385e-08
2.71281e-07
1.37311e-06
1.13474e-06
1.23144e-06
1.17396e-06
8.47103e-07
8.87492e-07
6.17213e-07
5.83726e-07
4.10718e-07
3.91295e-07
5.97168e-08
4.9619e-08
1.21656e-07
1.08641e-07
1.13343e-07
9.50073e-08
1.24931e-07
1.15581e-07
2.41026e-07
2.28866e-07
3.47083e-07
3.37298e-07
1.74398e-07
1.92026e-07
-9.79413e-12
5.58015e-10
2.97764e-10
3.50245e-10
3.11565e-08
5.80438e-08
-2.04451e-08
-8.22671e-09
9.88137e-09
1.14426e-06
1.09465e-06
4.25993e-07
4.12469e-07
-2.84559e-08
-5.29239e-08
9.05483e-08
2.2876e-07
1.39776e-07
2.00252e-07
1.21924e-06
1.1411e-06
2.37061e-06
2.62733e-06
2.51526e-06
2.75259e-06
1.18917e-06
1.03509e-06
2.31338e-07
1.03003e-07
2.43668e-07
4.40458e-08
3.28364e-08
1.07184e-07
3.78361e-08
2.15977e-06
2.20901e-06
1.23602e-06
1.17765e-06
1.10214e-06
9.96146e-07
4.18646e-07
3.78979e-07
5.26505e-07
5.5735e-07
-3.99959e-08
-4.77453e-08
3.88524e-08
2.99006e-08
5.55936e-08
7.07454e-08
7.62306e-08
9.24794e-08
1.39724e-07
1.60141e-07
2.5718e-07
2.39263e-07
2.81443e-07
3.20735e-07
3.07027e-07
3.13947e-07
1.77906e-07
1.9574e-07
3.57607e-09
4.26054e-09
4.87045e-09
5.2527e-09
-6.48329e-09
-6.47109e-09
-1.0175e-09
-9.91207e-10
3.62727e-07
4.19291e-07
6.20062e-08
1.39326e-07
-1.92158e-07
-2.15111e-07
2.79019e-08
2.8008e-08
9.27981e-07
8.91617e-07
4.90563e-07
5.07302e-07
4.27238e-07
3.95497e-07
2.71645e-07
2.71307e-07
1.07397e-07
1.15971e-07
2.12943e-07
2.76754e-07
2.07304e-06
2.40828e-06
2.28255e-06
2.55449e-06
2.07527e-06
2.28999e-06
2.90308e-07
2.92699e-07
1.00646e-06
1.10363e-06
3.53184e-07
3.69516e-07
5.57483e-08
3.94208e-08
3.32034e-07
2.67155e-08
1.24055e-07
3.02488e-07
2.48592e-07
1.9744e-06
1.9151e-06
1.53181e-06
1.45813e-06
1.05231e-06
1.10347e-06
6.74984e-07
7.21014e-07
6.74594e-07
6.78189e-07
5.36519e-07
5.22725e-07
1.83353e-08
2.01478e-08
1.14093e-09
-5.43037e-09
3.83039e-08
3.0191e-08
4.01581e-08
2.80641e-08
7.65927e-08
5.78454e-08
8.25933e-08
6.00337e-08
1.06828e-07
9.01401e-08
1.06328e-07
1.06203e-07
2.01067e-07
1.81696e-07
2.57749e-07
2.50821e-07
2.90224e-07
2.70194e-07
1.10091e-07
1.12506e-07
1.58594e-07
1.61929e-07
1.52036e-07
1.39023e-07
1.06858e-08
1.10707e-08
6.13307e-10
1.13879e-09
-5.72856e-09
-5.87579e-09
1.47131e-10
6.47595e-10
-7.60104e-09
-8.02614e-09
-8.93977e-10
-9.10923e-10
-6.32785e-10
2.22947e-08
4.93004e-08
-1.54677e-07
-1.45711e-07
-1.78977e-08
-1.73946e-08
8.81907e-08
9.29887e-08
3.05483e-11
8.11594e-09
8.98706e-07
8.56722e-07
9.004e-07
8.97582e-07
4.48586e-07
4.64033e-07
3.81753e-07
3.67854e-07
-1.00851e-07
7.96614e-08
1.54152e-08
8.65627e-08
6.50901e-07
7.91772e-07
1.5499e-06
2.20455e-06
1.64214e-06
1.40344e-06
1.34151e-06
2.31124e-06
2.10008e-06
3.39851e-07
3.42979e-07
6.13886e-07
7.16396e-07
8.18698e-07
1.03471e-06
-5.38012e-08
1.39048e-07
5.19794e-08
4.10714e-07
4.06342e-07
1.14815e-07
1.78067e-07
3.21141e-07
9.18857e-08
3.41775e-07
1.70916e-07
8.78468e-07
7.92056e-07
1.95949e-06
2.08236e-06
1.47419e-06
1.46586e-06
1.52764e-06
1.38139e-06
1.359e-06
1.20214e-06
2.6394e-07
2.64022e-07
3.43327e-07
3.79083e-07
7.54044e-07
7.44183e-07
8.21996e-07
7.95647e-07
5.45814e-07
5.44309e-07
5.02571e-07
4.7647e-07
3.67757e-07
3.35307e-07
-4.0899e-08
-3.34307e-08
7.84158e-08
8.58652e-08
3.74086e-08
3.01609e-08
4.02173e-08
2.90937e-08
3.95427e-08
2.33309e-08
3.52172e-08
1.41352e-08
1.00993e-07
8.58944e-08
1.1534e-07
1.19905e-07
1.857e-07
1.68628e-07
2.75961e-07
2.84308e-07
1.90707e-07
1.97429e-07
1.49694e-07
1.63778e-07
1.44561e-07
1.47694e-07
1.66142e-07
1.43545e-08
1.48478e-08
4.27139e-09
4.97852e-09
-2.72762e-09
-3.21875e-09
-4.2657e-10
4.25077e-11
5.06225e-09
4.66646e-09
-1.29585e-09
-9.81059e-10
-7.95941e-09
-8.00686e-09
-4.20925e-10
-4.91593e-10
3.48193e-09
3.76781e-09
5.62809e-08
1.94982e-07
5.68785e-08
-8.4937e-08
-8.05291e-08
-2.91013e-07
-1.83124e-07
-2.27889e-07
-1.86283e-07
-1.57244e-08
-1.59324e-08
4.50702e-08
4.4234e-08
-1.93628e-09
1.70097e-09
1.85603e-10
-3.38601e-09
-6.18538e-08
-8.13584e-08
9.12855e-07
1.05526e-06
7.99441e-07
7.84867e-07
5.67625e-07
5.74896e-07
4.67892e-07
3.07258e-07
2.58908e-07
3.17357e-07
1.23854e-07
1.18802e-09
1.14481e-07
6.56326e-08
1.42806e-06
2.31076e-06
1.95683e-06
1.92895e-06
1.85374e-06
1.82745e-06
1.78794e-06
2.48151e-06
2.72245e-06
2.49037e-07
2.5092e-07
3.33414e-07
3.08366e-07
3.99648e-07
3.68423e-07
1.05127e-06
9.46915e-07
3.10667e-07
3.35088e-07
2.8471e-07
1.0398e-07
1.09145e-07
1.42167e-08
-1.63168e-07
-6.55059e-10
-5.9239e-08
4.73929e-09
7.2966e-08
1.99561e-07
6.58166e-07
7.07086e-07
1.32282e-06
1.28215e-06
1.76223e-06
1.69955e-06
1.44317e-06
1.6086e-06
1.9019e-06
1.8215e-06
1.30799e-06
1.37243e-06
2.98641e-07
2.87856e-07
4.54521e-07
4.09847e-07
5.72035e-07
6.41768e-07
6.05918e-07
6.08173e-07
7.57962e-07
7.00208e-07
4.40373e-07
4.40844e-07
4.71691e-07
4.83282e-07
3.5622e-07
3.72752e-07
-1.57306e-08
-2.07608e-08
-9.56038e-08
-6.29979e-08
9.52429e-08
1.0564e-07
6.26711e-08
7.06945e-08
4.64211e-08
5.46033e-08
5.12626e-08
6.24373e-08
3.96554e-08
2.97375e-08
4.06035e-08
2.56815e-08
3.7125e-08
1.83901e-08
1.16038e-07
1.30508e-07
9.51654e-08
8.16174e-08
1.45943e-07
1.48613e-07
1.33612e-07
1.41478e-07
1.71287e-07
1.56183e-07
2.14097e-07
2.37764e-07
1.94449e-07
1.90078e-07
3.18277e-07
3.22124e-07
2.28127e-07
2.27565e-07
1.91924e-07
1.80499e-07
1.63683e-07
1.49371e-07
1.2733e-07
1.1653e-07
1.37286e-08
1.33611e-08
1.06873e-08
1.032e-08
1.34982e-09
1.85667e-09
-3.00479e-10
2.70284e-10
-5.24037e-09
-5.08154e-09
7.97595e-09
7.76261e-09
-1.04126e-10
1.68499e-10
-6.75806e-09
-7.19979e-09
-7.57329e-09
-7.52046e-09
-8.04606e-10
-6.94585e-10
2.40899e-10
2.55036e-10
9.81138e-10
6.79861e-10
-5.61143e-10
-6.30115e-10
-5.02854e-08
-1.30388e-08
3.93768e-07
2.47679e-07
-1.12467e-07
-1.11194e-07
2.61476e-09
-2.35539e-08
-4.9395e-08
-1.95249e-08
-1.61947e-07
-1.45283e-07
-1.69806e-08
-1.71785e-08
-1.57188e-10
1.44226e-10
2.71772e-08
2.65503e-08
2.89343e-08
2.90452e-08
1.61313e-08
1.45034e-08
1.03238e-09
-6.67242e-09
1.07542e-08
-1.03807e-08
7.68596e-07
6.62904e-07
1.02541e-06
1.15309e-06
1.17113e-06
1.27303e-06
7.36226e-07
8.10208e-07
6.21093e-07
6.30788e-07
4.48181e-07
4.85251e-07
3.73963e-07
3.61105e-07
-2.10037e-08
-4.8312e-08
2.20594e-07
2.05768e-07
1.67576e-07
1.34063e-07
9.6858e-08
4.52419e-07
3.6796e-07
1.36374e-06
1.29382e-06
2.09603e-06
1.70947e-06
1.65598e-06
1.60837e-06
2.43162e-06
2.67535e-06
2.30928e-07
2.32589e-07
3.79411e-07
3.51078e-07
3.13937e-07
3.16581e-07
8.39639e-07
9.14897e-07
1.15145e-06
1.29218e-06
1.41764e-07
2.05434e-07
1.16181e-08
1.98742e-07
1.83447e-07
1.76335e-07
3.11058e-07
9.63122e-08
4.2024e-07
3.83801e-07
3.33966e-07
1.53571e-07
9.60694e-08
-1.14164e-08
1.27709e-07
7.89022e-07
7.25714e-07
1.82675e-06
1.68998e-06
1.63324e-06
1.63998e-06
1.71553e-06
1.54647e-06
3.4794e-07
2.51732e-07
3.27722e-07
3.4438e-07
3.07724e-07
5.7765e-07
6.38319e-07
6.6195e-07
5.91556e-07
7.24714e-07
8.30609e-07
7.16589e-07
7.38628e-07
6.09215e-07
6.27828e-07
3.84605e-07
3.92576e-07
4.89522e-07
4.90484e-07
4.46243e-07
4.05124e-07
1.07976e-08
7.9284e-09
-1.93288e-08
-1.39831e-08
-6.64308e-08
-7.75282e-08
-2.4154e-08
-3.03313e-08
7.72943e-08
8.95875e-08
8.92415e-08
9.85235e-08
6.60797e-08
7.49986e-08
5.21049e-08
4.47253e-08
5.2438e-08
6.48873e-08
4.0695e-08
2.7235e-08
3.92624e-08
2.13975e-08
1.23593e-07
1.39863e-07
1.25477e-07
1.30429e-07
1.15521e-07
1.07261e-07
2.1587e-07
2.0179e-07
2.18715e-07
1.96705e-07
2.20049e-07
2.09856e-07
2.63149e-07
2.62041e-07
2.8181e-07
2.23584e-07
2.32278e-07
2.07187e-07
2.32384e-07
1.36511e-07
1.37025e-07
1.61447e-07
1.77032e-07
1.22875e-07
1.34477e-07
5.34312e-08
5.62776e-08
1.36453e-08
1.35576e-08
8.84336e-09
8.5205e-09
1.89899e-09
1.40589e-09
-2.05066e-11
-6.13629e-10
-2.42997e-09
-1.93633e-09
2.50527e-10
7.26616e-10
4.85116e-09
4.43996e-09
2.30751e-09
2.67115e-09
-4.68825e-09
-5.27083e-09
1.42217e-10
4.0089e-10
-1.53842e-09
-1.28519e-09
-4.8012e-09
-4.61939e-09
-7.83201e-09
-7.89288e-09
-3.31162e-09
-3.30169e-09
-4.9817e-10
-5.64577e-10
-4.93277e-10
-3.93039e-10
2.60004e-10
2.93871e-10
2.62719e-10
2.1744e-10
7.03248e-10
7.55383e-10
-2.68972e-11
5.2708e-10
-3.00224e-10
-1.22398e-08
-1.28196e-08
4.2218e-07
2.70043e-07
4.48582e-07
4.46589e-07
3.92365e-07
5.09273e-07
7.22053e-07
-1.1109e-07
-1.06061e-07
-1.54179e-08
4.33803e-09
-2.37714e-08
-1.54914e-09
-5.46229e-08
-7.52735e-08
-1.06977e-08
-2.23275e-08
-9.98038e-08
-9.75592e-08
-9.00639e-09
-8.72699e-09
-1.57403e-08
-1.59383e-08
-1.27498e-08
-1.29371e-08
-4.02912e-09
-3.88857e-09
4.344e-08
4.50478e-08
4.67097e-08
4.59263e-08
3.23127e-08
3.21043e-08
2.90967e-08
2.90852e-08
1.26616e-08
1.44661e-08
-4.62519e-09
1.48339e-08
-5.74618e-09
-7.9912e-09
-6.55856e-10
4.66993e-07
5.28599e-07
9.1379e-07
7.13391e-07
9.84958e-07
1.15134e-06
9.09634e-07
8.25646e-07
8.55842e-07
8.8537e-07
6.21548e-07
6.48596e-07
4.39932e-07
4.35302e-07
5.35684e-07
5.81222e-07
3.16047e-07
3.31632e-07
1.18865e-08
7.10286e-09
2.48866e-07
2.36389e-07
1.50717e-07
2.13312e-07
4.28467e-07
3.33131e-07
1.46243e-06
1.54196e-06
1.34198e-06
1.32789e-06
1.57896e-06
1.40965e-06
2.25465e-06
2.03514e-06
2.68858e-07
2.70926e-07
3.24619e-07
3.00593e-07
4.98338e-07
5.92317e-07
8.56531e-07
7.85167e-07
1.21142e-06
1.31781e-06
2.95258e-07
2.82786e-07
9.73726e-08
-2.17298e-08
-6.25325e-09
-8.21499e-08
1.45243e-07
1.35687e-07
9.18087e-08
7.19294e-08
-4.16478e-09
8.94473e-09
3.29959e-07
3.01034e-07
5.1476e-08
1.04229e-07
1.53793e-06
1.81934e-06
1.4051e-06
1.35516e-06
1.60141e-06
1.43734e-06
1.63107e-06
1.70918e-06
3.93149e-07
3.85518e-07
3.81717e-07
5.08309e-07
5.64851e-07
6.73988e-07
6.03503e-07
8.45631e-07
8.38636e-07
6.6475e-07
6.88593e-07
3.96808e-07
3.97158e-07
4.32582e-07
4.54743e-07
-1.53845e-08
-1.08214e-08
-2.65199e-08
-3.27837e-08
-7.13874e-08
-5.87628e-08
-1.28384e-08
-7.84483e-09
-1.33265e-08
1.01715e-07
1.13412e-07
8.01516e-08
7.35235e-08
4.79094e-08
5.70751e-08
6.79669e-08
5.42246e-08
5.77006e-08
7.87682e-08
1.59187e-07
1.62354e-07
9.92881e-08
9.28263e-08
1.30167e-07
1.23171e-07
1.67328e-07
1.57383e-07
2.19266e-07
2.3513e-07
2.01037e-07
1.92401e-07
2.12223e-07
2.15527e-07
3.54694e-07
3.57979e-07
3.57435e-07
3.53582e-07
2.69159e-07
2.54363e-07
2.47713e-07
1.24801e-07
1.25477e-07
1.6934e-07
1.86839e-07
1.28119e-07
1.40314e-07
1.35395e-08
1.34461e-08
1.32788e-08
1.31848e-08
8.9505e-09
9.28026e-09
9.95701e-09
1.03191e-08
9.08961e-09
9.68564e-09
1.97625e-10
7.97401e-10
-1.66757e-09
-1.165e-09
-6.11715e-10
-8.97646e-10
-4.90317e-09
-5.55989e-09
7.25393e-09
7.50984e-09
2.11871e-09
2.48209e-09
-4.26193e-09
-4.83502e-09
-3.25746e-09
-3.4354e-09
8.29333e-10
1.20245e-09
-2.42444e-09
-2.69852e-09
-8.52776e-10
-6.13773e-10
-2.42053e-09
-2.18471e-09
-5.66511e-09
-5.73119e-09
-5.64496e-09
-5.52573e-09
-7.44914e-09
-7.38153e-09
-4.64008e-09
-4.40761e-09
-4.26951e-10
-3.51867e-10
-3.66882e-10
-4.55467e-10
2.73402e-10
3.13855e-10
1.77391e-10
1.31203e-10
-4.23881e-10
-4.94115e-10
9.01301e-10
1.10243e-09
-4.39638e-10
-4.98003e-10
-5.42115e-10
-6.11036e-10
2.71514e-07
2.44511e-07
2.12867e-07
-1.77442e-08
-3.19272e-08
1.96986e-07
9.01244e-08
1.58179e-07
7.03196e-08
-4.34188e-08
-4.35968e-08
3.5731e-07
3.19426e-07
-1.25394e-07
-1.26357e-07
-9.98646e-08
-9.65234e-08
5.92695e-09
-2.34226e-08
-2.52428e-07
-6.44327e-08
-1.20518e-07
-8.42468e-08
-1.13786e-07
-1.1726e-07
-9.54212e-08
-9.52747e-08
-3.18332e-09
-2.66992e-09
-1.78118e-08
-1.8016e-08
-1.55223e-08
-1.53235e-08
-1.61409e-08
-1.63461e-08
-2.73299e-09
-2.49022e-09
-5.43667e-09
-5.61033e-09
9.57938e-08
1.01402e-07
1.9826e-08
2.0386e-08
3.16746e-08
3.27614e-08
8.24553e-08
8.65992e-08
4.11885e-08
4.1751e-08
2.77131e-08
2.74624e-08
1.56371e-08
1.71818e-08
8.86988e-09
7.78499e-09
4.21877e-09
8.43266e-09
2.41456e-09
-5.27441e-08
9.36798e-07
8.36633e-07
1.28849e-06
1.14992e-06
7.17982e-07
6.91376e-07
6.08442e-07
6.68453e-07
4.74535e-07
4.79702e-07
3.86407e-07
3.64952e-07
3.54896e-07
3.96441e-07
-4.43219e-08
3.57956e-09
4.60177e-09
3.13463e-08
4.235e-08
2.89487e-07
2.62619e-07
1.32705e-07
1.36277e-07
8.90672e-07
5.97034e-07
7.27721e-07
5.82727e-07
1.06878e-06
9.64684e-07
1.53013e-06
1.89228e-06
1.69977e-06
1.44923e-06
1.41294e-06
3.08105e-07
2.87056e-07
2.58487e-07
2.64536e-07
3.61099e-07
3.91017e-07
7.83449e-07
6.8668e-07
5.82303e-07
4.6544e-07
5.58336e-07
3.6129e-07
2.88269e-07
2.26138e-07
2.49137e-07
1.38403e-07
2.13082e-07
3.60231e-08
1.66654e-07
2.47899e-07
2.33259e-07
1.89289e-07
1.54967e-07
1.13674e-07
1.08736e-07
1.35574e-08
1.33394e-08
2.21538e-07
7.08183e-07
6.18316e-07
1.17357e-06
1.18085e-06
1.49575e-06
1.5644e-06
1.32282e-06
1.31834e-06
4.74881e-07
4.8577e-07
3.80775e-07
3.75244e-07
5.1158e-07
5.75174e-07
6.28999e-07
6.84779e-07
5.80488e-07
5.96658e-07
7.52115e-07
7.57174e-07
4.35089e-07
4.25337e-07
-2.4652e-09
9.33593e-10
-2.29055e-08
-1.64993e-08
-2.6534e-08
-2.06572e-08
-9.03557e-08
-1.01561e-07
3.88068e-09
7.72855e-09
-3.15926e-08
-2.69614e-08
8.44825e-08
7.3502e-08
8.36446e-08
9.20248e-08
5.63468e-08
7.33311e-08
1.1505e-07
1.15565e-07
1.0132e-07
9.68407e-08
1.45166e-07
1.5405e-07
1.58226e-07
1.44923e-07
2.08213e-07
2.13273e-07
1.83853e-07
1.76246e-07
2.36949e-07
2.35038e-07
3.22933e-07
3.203e-07
2.8614e-07
2.90429e-07
2.9489e-07
2.78498e-07
1.23233e-07
1.20587e-07
1.13942e-07
1.14598e-07
1.47145e-07
1.53887e-07
1.38075e-08
1.38877e-08
8.63157e-09
8.95588e-09
9.61991e-09
9.96298e-09
1.26856e-08
1.31324e-08
4.9816e-09
4.60736e-09
8.61716e-09
8.2537e-09
1.42274e-09
5.96917e-10
-1.17985e-09
-1.7028e-09
-1.41769e-09
-2.2229e-09
9.02176e-10
1.37017e-09
-3.40604e-09
-3.17027e-09
4.20709e-09
3.8547e-09
7.7231e-09
7.45384e-09
7.3657e-10
5.61269e-10
-5.90639e-09
-6.53152e-09
-6.31937e-09
-6.93914e-09
-4.11794e-09
-1.98413e-10
1.47379e-10
5.10896e-10
8.46204e-10
4.52548e-10
-2.84693e-09
-3.12373e-09
-4.19503e-10
-1.80931e-10
-1.05083e-09
-1.50883e-09
-7.13937e-09
-7.63412e-09
-7.68043e-09
-7.70882e-09
-4.53009e-09
-4.36744e-09
-5.22744e-09
-5.07077e-09
-7.03597e-09
-6.95888e-09
-2.38507e-09
-2.26809e-09
-4.24415e-09
-4.54483e-09
-1.21424e-09
-1.07802e-09
-1.38562e-09
-1.17785e-09
-5.43582e-10
-5.91643e-10
7.40802e-11
1.26525e-10
2.52369e-10
2.74368e-10
1.0376e-10
1.41454e-10
-4.02151e-10
-4.76229e-10
3.66908e-10
2.83738e-10
-3.16781e-10
-4.16412e-10
-4.55344e-10
-4.04692e-10
-6.05969e-10
-5.44831e-10
-9.43352e-11
-1.47351e-10
1.61946e-10
3.38519e-10
1.68989e-07
2.00749e-07
1.76296e-08
2.13259e-08
1.71247e-07
1.84928e-07
3.74039e-08
2.95749e-10
1.34657e-07
4.78217e-08
1.77312e-07
2.1463e-08
2.67534e-08
1.012e-06
1.16099e-06
-1.38195e-07
-1.27232e-07
-1.58317e-07
-8.96165e-08
-9.47071e-08
-4.83988e-08
-7.15915e-08
2.18689e-07
6.27383e-09
1.27822e-07
1.40306e-09
-1.96002e-08
-7.06189e-08
-7.6886e-08
-1.29564e-07
-1.2584e-07
-9.77066e-08
-9.99626e-08
-1.2858e-08
-1.29653e-08
-1.0024e-09
-5.74955e-10
-7.53037e-09
-7.24259e-09
-1.53798e-08
-1.56483e-08
-1.51158e-08
-1.49236e-08
-2.96727e-09
-2.95039e-09
-5.25829e-09
-5.09653e-09
7.26061e-08
7.64086e-08
8.31433e-08
8.76038e-08
2.09971e-08
2.04737e-08
2.38712e-08
2.40899e-08
2.47332e-08
2.41651e-08
2.59473e-08
2.54384e-08
4.22655e-08
4.2717e-08
3.05269e-08
3.03702e-08
2.38486e-08
2.43491e-08
1.74469e-08
1.88423e-08
1.25949e-08
1.05248e-08
-1.00519e-09
-4.35933e-09
6.27592e-07
5.86009e-07
6.94753e-07
6.08751e-07
1.1775e-06
1.31859e-06
9.74008e-07
1.07568e-06
5.8944e-07
5.63392e-07
5.1858e-07
5.24472e-07
4.52977e-07
4.8828e-07
4.03775e-07
4.38207e-07
3.55149e-08
7.43456e-08
1.08641e-07
1.94587e-07
2.43597e-07
2.98584e-07
2.84123e-07
1.73017e-07
1.70632e-07
5.80339e-07
5.24248e-07
1.36019e-06
1.19809e-06
1.65375e-06
1.86469e-06
2.22814e-07
2.2754e-07
2.85423e-07
2.78543e-07
1.21981e-06
1.33492e-06
7.02458e-07
7.76725e-07
1.00889e-06
8.69901e-07
2.15532e-07
2.20759e-07
1.33451e-07
3.06832e-07
2.5839e-07
4.20418e-07
3.69304e-07
2.3866e-07
1.65714e-07
2.66705e-07
2.98381e-07
8.83324e-08
6.98869e-08
-7.23629e-08
-8.34932e-08
2.43958e-07
2.76434e-07
1.67064e-07
1.42393e-07
1.64862e-07
7.55851e-08
1.99141e-08
6.23047e-08
4.79877e-08
4.76144e-08
1.34461e-06
9.97307e-07
1.08346e-06
9.17067e-07
1.30917e-06
1.31961e-06
1.96609e-06
2.2395e-06
1.92711e-06
1.05818e-06
1.05978e-06
1.30409e-06
1.27501e-06
5.2919e-07
5.409e-07
3.72934e-07
4.04452e-07
4.23933e-07
4.6522e-07
6.07221e-07
5.43534e-07
6.63133e-07
6.43919e-07
4.93524e-09
7.66745e-09
-6.72515e-09
-1.12207e-08
-1.10442e-08
-6.40885e-09
-4.64229e-08
-4.03099e-08
-6.83534e-08
-1.06924e-07
-7.92325e-08
-8.46843e-08
-6.82241e-08
-2.72382e-08
-4.48015e-08
-1.44486e-08
7.95972e-08
6.96874e-08
1.24211e-07
1.25469e-07
1.05044e-07
1.10242e-07
1.07202e-07
9.98517e-08
1.70941e-07
1.82138e-07
1.46174e-07
1.34308e-07
2.28384e-07
2.34247e-07
2.38578e-07
2.37726e-07
2.91557e-07
2.8963e-07
3.23006e-07
3.05044e-07
1.34905e-07
1.31997e-07
3.36698e-09
2.49456e-09
9.22369e-09
8.95389e-09
5.36178e-09
5.15575e-09
8.4266e-09
8.10435e-09
1.0283e-08
9.92513e-09
1.27632e-08
1.22912e-08
1.54732e-09
1.98054e-09
4.73064e-09
4.27401e-09
7.60713e-09
8.09734e-09
4.57097e-09
5.15506e-09
9.66194e-10
1.5607e-09
-1.86695e-10
3.08652e-10
-9.05716e-10
-3.70529e-10
-6.58542e-10
1.49561e-09
1.96241e-09
4.58172e-10
-3.66811e-09
-4.04576e-09
-5.17007e-09
-5.37329e-09
1.37742e-11
-2.24523e-10
4.09624e-09
4.47952e-09
7.22741e-09
7.39921e-09
5.81869e-09
5.45061e-09
3.01501e-09
2.61395e-09
1.12796e-09
1.332e-09
-1.96516e-09
-1.45641e-09
-6.17282e-09
-6.79579e-09
-6.74412e-09
-7.33371e-09
-1.71416e-09
-2.00143e-09
3.67439e-10
-2.12289e-10
6.32594e-10
2.33912e-10
-1.40484e-09
-1.71045e-09
-1.7375e-09
-1.98778e-09
-6.87053e-09
-7.43985e-09
-7.21881e-09
-6.75426e-09
-4.74017e-09
-4.87752e-09
-5.76861e-09
-5.37392e-09
-7.74553e-09
-7.78372e-09
-7.19304e-09
-7.1608e-09
-5.8411e-10
-7.53969e-10
-2.99585e-09
-2.86216e-09
-4.6355e-09
-4.36981e-09
-3.91671e-09
-4.892e-09
-4.74634e-09
2.47619e-10
2.1204e-10
-6.25034e-10
-6.99953e-10
-3.1338e-10
-2.05723e-10
-2.95945e-10
-3.75306e-10
-1.30449e-10
-2.11038e-10
1.35353e-10
9.1372e-11
1.91302e-10
1.88098e-10
1.9754e-10
1.73466e-10
2.50363e-10
2.21167e-10
3.62369e-09
3.91448e-09
5.43515e-10
5.73898e-10
-4.50321e-10
-3.9377e-10
-1.01512e-09
-1.02459e-09
-5.08665e-10
-4.59219e-10
-4.86961e-10
-4.29029e-10
-1.34816e-10
-1.33923e-10
2.56401e-10
2.74532e-10
-6.60353e-10
-3.51983e-10
-9.65706e-08
-1.09952e-07
3.411e-08
4.12902e-08
-2.84883e-08
5.4753e-08
4.94548e-08
4.03925e-08
7.17626e-09
1.00139e-07
4.83283e-09
3.15099e-07
-6.07988e-08
-6.07074e-08
1.06888e-07
9.70913e-08
8.85427e-07
8.98294e-07
2.77107e-07
3.14447e-07
-1.28053e-07
-1.26219e-07
1.10827e-08
2.49524e-08
-6.35989e-08
-4.43819e-08
1.95479e-08
7.32269e-08
1.39452e-07
4.04019e-08
-1.74282e-08
-5.67813e-08
-6.61451e-08
-5.48417e-08
-7.74289e-08
-1.34977e-07
-8.83411e-08
-8.6413e-08
-1.14791e-07
-1.18058e-07
-2.97147e-08
-3.09881e-08
-2.26072e-08
-2.26148e-08
-8.08301e-09
-8.6079e-09
-1.03134e-09
-5.97835e-10
-6.93234e-09
-7.10458e-09
-1.73162e-08
-1.69147e-08
-1.52819e-08
-1.50248e-08
-1.6569e-08
-1.6769e-08
-1.4057e-08
-1.42491e-08
-1.05458e-08
-1.0766e-08
-1.86389e-10
1.32054e-10
-4.13235e-09
-4.26848e-09
-6.17633e-10
-4.36522e-10
9.89848e-08
1.04737e-07
9.23195e-08
9.7559e-08
2.91152e-08
2.8366e-08
3.09269e-08
2.99714e-08
2.63553e-08
2.28816e-08
2.39863e-08
2.53008e-08
2.58537e-08
6.94307e-08
6.63994e-08
3.25928e-08
3.26378e-08
3.18674e-08
3.15831e-08
2.56687e-08
2.59966e-08
2.08528e-08
1.992e-08
1.53472e-08
1.74493e-08
1.40633e-08
1.57179e-08
7.58859e-09
9.36456e-09
-6.54042e-08
-7.94791e-08
6.62335e-07
6.34892e-07
6.48292e-07
5.62696e-07
1.06039e-06
1.05741e-06
1.17115e-06
1.29083e-06
5.37388e-07
5.13132e-07
6.81429e-07
6.88747e-07
4.2872e-07
4.16843e-07
-6.22602e-08
-7.59079e-08
4.56238e-08
2.63086e-07
1.64799e-06
1.72797e-06
2.45297e-07
2.39951e-07
1.44248e-06
7.17505e-07
6.57802e-07
9.59224e-07
7.54617e-07
2.08021e-07
2.3296e-07
3.13089e-07
4.57752e-07
3.94671e-07
3.6709e-07
1.97157e-07
1.52875e-07
1.3823e-07
-4.71232e-09
-7.56385e-08
-8.9603e-08
2.54871e-07
3.03936e-07
1.45185e-07
1.46776e-07
8.34663e-08
1.11798e-07
3.19249e-08
6.88476e-07
5.75517e-07
5.24898e-07
8.65933e-07
8.6224e-07
8.97698e-07
9.46435e-07
1.10676e-06
9.81194e-07
1.63252e-06
1.63521e-06
2.0001e-06
1.96191e-06
9.45459e-07
9.43063e-07
1.14215e-06
1.16811e-06
4.84909e-07
5.10359e-07
4.2501e-07
4.35972e-07
5.17869e-07
4.67971e-07
1.40277e-08
1.6524e-08
2.12346e-08
2.23648e-08
9.87073e-09
3.84367e-09
-1.68374e-09
-2.56439e-08
-3.27906e-08
-4.95531e-08
-5.67118e-08
-1.15588e-07
-1.06541e-07
-6.41268e-08
-2.78118e-09
-1.67774e-08
-3.48919e-08
1.61858e-07
1.68503e-07
1.34352e-07
1.36433e-07
9.18999e-08
8.62527e-08
1.85626e-07
1.98249e-07
2.16949e-07
2.16296e-07
2.75129e-07
2.82385e-07
1.26022e-08
1.22546e-08
1.091e-08
9.78908e-09
9.41089e-09
9.77046e-09
2.10352e-08
2.17974e-08
1.45002e-08
1.40337e-08
7.90317e-09
7.51074e-09
9.41062e-09
9.07506e-09
9.6209e-09
9.28426e-09
9.58302e-09
1.21373e-08
1.25648e-08
2.4347e-09
1.99915e-09
2.62057e-09
2.40462e-09
8.47441e-09
8.96783e-09
9.38375e-09
9.98791e-09
7.52938e-09
7.90825e-09
4.22051e-09
4.83667e-09
2.05147e-09
2.69599e-09
2.18389e-09
8.98862e-11
8.23446e-10
-1.35825e-10
4.02397e-10
2.0493e-09
2.4981e-09
-8.52657e-10
-1.84799e-10
-3.38212e-09
-3.19292e-09
-4.70953e-09
-4.49122e-09
1.38157e-09
1.06908e-09
4.28017e-09
3.89645e-09
6.46528e-09
6.15362e-09
7.06666e-09
8.4281e-09
8.15106e-09
1.93654e-09
1.74957e-09
-3.9354e-10
8.60543e-11
1.39245e-09
1.81859e-09
-5.7802e-09
-6.39739e-09
-2.5859e-09
-3.13937e-09
-5.70972e-09
-5.56269e-09
-6.60688e-09
-7.20952e-09
-6.15744e-09
-1.4646e-09
-1.19435e-09
-2.25922e-10
-5.76197e-10
-1.39531e-11
-2.7459e-10
-1.81545e-09
-1.54503e-09
-1.11936e-09
-6.84992e-10
-4.17531e-09
-4.00088e-09
-7.05186e-09
-7.57261e-09
-6.64815e-09
-5.32805e-09
-5.4023e-09
-4.38723e-09
-4.18604e-09
-4.97519e-09
-7.3163e-09
-7.27181e-09
-6.44469e-09
-6.40244e-09
-7.10574e-09
1.11089e-09
8.62239e-10
-2.66407e-09
-2.52474e-09
-3.68737e-09
-3.34394e-09
-4.10248e-09
-4.01556e-09
-3.49585e-09
-3.4859e-09
-1.34145e-09
-1.28267e-09
-4.9787e-11
-4.61303e-10
-2.69919e-10
-5.64766e-10
-6.30541e-10
-1.02991e-09
-9.15602e-10
-6.40203e-10
-7.38592e-10
-4.45437e-10
-4.92915e-10
-1.03992e-10
-1.85642e-10
1.51227e-10
1.07085e-10
1.80811e-10
1.81402e-10
-9.81412e-11
-1.27665e-11
1.66833e-10
1.33721e-10
3.3781e-10
3.25534e-10
2.97975e-09
2.75673e-09
6.63528e-10
4.63123e-10
2.41962e-10
3.23339e-10
4.61713e-10
5.77514e-10
2.8888e-10
4.31019e-10
-4.828e-10
-3.74268e-10
-7.13071e-10
-8.08814e-10
-5.79661e-10
-5.49623e-10
-4.09827e-10
-3.6515e-10
-5.87489e-10
-6.5714e-10
-1.48078e-10
-2.01942e-10
5.07749e-10
5.19545e-10
-6.74593e-10
-5.28778e-10
-5.06138e-12
-2.53761e-08
-2.57445e-08
6.43806e-07
5.66494e-07
5.15659e-08
1.52532e-07
1.0873e-07
4.728e-08
2.69752e-08
1.32987e-07
1.59023e-07
5.36628e-08
-3.7464e-10
-1.63524e-07
-4.51679e-08
-4.52689e-08
3.66758e-08
3.083e-08
3.19851e-07
2.78526e-07
7.33437e-07
7.40272e-07
1.00754e-06
1.11401e-06
7.05042e-07
7.46791e-07
2.40664e-07
1.67725e-07
-6.05825e-08
-3.88579e-08
8.18571e-09
2.84514e-08
-9.20939e-08
-8.71476e-08
-8.13131e-08
1.40844e-07
6.71757e-08
2.10818e-08
1.91333e-07
2.40737e-07
2.39564e-08
-1.07149e-08
-3.80704e-08
2.04434e-07
1.2098e-07
1.02545e-07
-1.24192e-07
-1.257e-07
-1.27396e-07
-1.03955e-07
-1.01948e-07
-3.26883e-08
-3.34459e-08
-3.96467e-08
-3.95477e-08
-1.68365e-08
-1.68894e-08
-7.89302e-09
-8.37623e-09
-8.02386e-09
-8.55431e-09
-1.06061e-09
-6.19002e-10
-4.68625e-09
-4.20529e-09
-7.37768e-09
-7.19836e-09
-1.93235e-08
-1.95721e-08
-1.48981e-08
-1.4651e-08
-1.49417e-08
-1.47254e-08
-1.69689e-08
-1.71758e-08
-1.38982e-08
-1.37063e-08
-1.31851e-08
-1.33778e-08
-3.09061e-09
-3.16419e-09
-8.42678e-10
-5.2646e-10
-1.04309e-10
1.50732e-10
-4.86643e-09
-4.99022e-09
-4.24087e-09
-4.27938e-09
-1.97063e-09
-1.66955e-09
1.74173e-10
2.3112e-10
8.89594e-08
9.37911e-08
8.38653e-08
7.97141e-08
2.91766e-08
2.99784e-08
2.97089e-08
3.06466e-08
3.16754e-08
3.26749e-08
2.74901e-08
2.69364e-08
2.65244e-08
2.7218e-08
5.39149e-08
5.15796e-08
2.8473e-08
2.58472e-08
3.34551e-08
3.30195e-08
3.06054e-08
3.06286e-08
2.46584e-08
2.50862e-08
1.8821e-08
1.75757e-08
6.77823e-09
3.4184e-09
1.942e-08
2.06754e-08
1.03754e-08
1.21941e-08
1.14742e-08
1.34201e-08
6.39274e-08
6.21694e-08
7.6916e-07
8.36834e-07
8.64273e-07
5.82249e-07
5.33142e-07
9.60653e-07
9.51433e-07
5.55439e-07
-2.81938e-08
6.61625e-08
6.59036e-08
1.22508e-06
1.14653e-06
1.40862e-06
6.6215e-07
6.20152e-07
2.9248e-07
2.72634e-07
4.70872e-07
4.37889e-07
4.68856e-07
2.941e-07
1.01959e-07
-8.52257e-08
-9.71448e-08
8.36065e-09
-2.24438e-08
-1.24118e-07
2.23583e-07
2.47486e-07
7.66936e-08
7.34406e-08
5.05704e-07
3.79964e-07
5.62516e-07
6.57585e-07
5.45819e-07
1.07706e-06
1.28161e-06
1.00041e-06
1.02672e-06
9.91303e-07
8.8652e-07
1.46813e-06
1.47329e-06
1.77014e-06
1.81578e-06
9.17211e-07
9.36549e-07
1.18182e-06
1.18543e-06
4.56523e-07
4.31725e-07
1.84578e-09
-1.90393e-09
2.31157e-08
1.63199e-08
-5.20207e-09
-9.28639e-09
-3.06946e-08
-4.07546e-08
-9.45053e-08
-8.70259e-08
1.12864e-08
1.54558e-07
1.48549e-07
1.73802e-07
1.77516e-07
1.13844e-07
1.19926e-07
2.6085e-07
2.55078e-07
1.24042e-08
1.14238e-08
3.91507e-08
3.92197e-08
1.17981e-08
1.08612e-08
8.0754e-09
7.88618e-09
1.06413e-08
1.05279e-08
2.21093e-08
2.28988e-08
1.14178e-08
1.10316e-08
1.35142e-08
1.40039e-08
1.54648e-08
1.58825e-08
8.06332e-09
8.38273e-09
8.59171e-09
8.28044e-09
9.1754e-09
8.7525e-09
9.24983e-09
8.91518e-09
1.25022e-08
1.29243e-08
2.68183e-09
2.24876e-09
2.20073e-09
1.76047e-09
6.48629e-09
6.83205e-09
9.94063e-09
1.0518e-08
9.66923e-09
1.02632e-08
8.33486e-09
8.99511e-09
3.78939e-09
3.39405e-09
7.92217e-09
7.60725e-09
2.89965e-09
3.58442e-09
1.84861e-09
1.22305e-09
-4.20708e-10
-9.19963e-10
1.05848e-09
1.62333e-09
-1.84277e-09
-1.39438e-09
-3.81957e-09
-3.9988e-09
-4.05404e-09
-3.82511e-09
-2.57426e-10
-4.94859e-10
1.04844e-09
8.09089e-10
4.03947e-09
3.66687e-09
6.90257e-09
7.07826e-09
8.11302e-09
8.30184e-09
7.89542e-09
8.17807e-09
4.72979e-09
4.52712e-09
3.42639e-09
3.8008e-09
2.61513e-10
-2.33042e-10
2.20192e-09
1.77845e-09
-1.80288e-09
-2.37586e-09
-2.12733e-09
-1.61175e-09
-3.4239e-09
-2.87958e-09
-5.1179e-09
-4.53751e-09
-5.42778e-09
-6.03716e-09
-5.5815e-09
-5.00172e-09
-6.46665e-09
-7.08092e-09
-2.75565e-09
-2.52322e-09
-1.53815e-09
-1.80308e-09
-5.94452e-10
-9.65299e-10
2.04666e-09
1.69558e-09
-2.25909e-09
-2.54756e-09
-2.00424e-09
-2.2666e-09
-3.53876e-09
-3.27091e-09
-3.63013e-09
-3.44998e-09
-6.97155e-09
-7.51508e-09
-6.02033e-09
-6.07558e-09
-3.98213e-09
-3.77014e-09
-6.26207e-09
-6.16902e-09
-6.87989e-09
-6.82346e-09
-6.33989e-09
-6.71759e-09
-7.13065e-10
-8.97067e-10
-3.11932e-09
-3.22014e-09
-3.10077e-09
-2.77817e-09
-3.89382e-09
-3.48038e-09
-4.31555e-09
-4.60056e-09
-5.06972e-09
-4.91852e-09
-1.98321e-09
-1.77755e-09
2.4087e-10
2.4792e-10
-6.68579e-11
-1.21009e-10
-3.70421e-10
-2.90234e-10
-4.29801e-10
-5.03343e-10
-6.29055e-10
-7.25545e-10
-8.39832e-10
-9.5444e-10
-5.76618e-10
-6.64738e-10
-4.13686e-10
-3.3179e-10
3.07613e-10
3.64169e-10
1.61462e-10
1.23778e-10
8.04334e-11
1.62317e-11
2.31709e-10
2.05546e-10
2.86775e-10
2.24445e-10
3.29451e-10
2.55902e-10
3.57099e-09
3.58479e-09
2.83197e-09
3.04552e-09
5.5724e-10
7.56497e-10
3.89649e-10
4.27311e-10
5.60591e-10
6.27529e-10
3.79034e-10
5.23548e-10
-5.44696e-10
-4.49553e-10
-7.3025e-10
-6.72456e-10
-7.19683e-10
-7.22039e-10
-9.11958e-10
-1.02637e-09
-5.08357e-10
-5.64269e-10
-4.0105e-10
-4.37104e-10
-1.20674e-10
-9.42642e-11
3.16364e-10
2.74975e-10
-8.00203e-11
-6.3525e-11
2.35656e-10
2.55638e-10
9.2771e-11
-2.60506e-08
-2.78901e-08
-1.50684e-07
-1.60389e-07
5.32875e-07
4.64908e-07
-5.45362e-08
-8.10112e-08
1.66333e-07
1.14422e-07
3.08529e-08
8.6475e-08
1.93706e-07
2.28109e-07
2.38371e-07
2.33109e-07
7.53382e-08
1.22584e-07
2.63463e-07
3.23994e-07
-1.29644e-07
-1.24678e-07
-3.3267e-08
-2.84502e-08
1.2111e-08
3.27208e-08
9.98518e-08
8.25324e-08
3.02319e-07
3.45203e-07
6.55892e-07
6.57559e-07
6.78566e-07