/*--------------------------------*- C++ -*----------------------------------*\
  =========                 |
  \\      /  F ield         | OpenFOAM: The Open Source CFD Toolbox
   \\    /   O peration     | Website:  https://openfoam.org
    \\  /    A nd           | Version:  7
     \\/     M anipulation  |
\*---------------------------------------------------------------------------*/
FoamFile
{
    version     2.0;
    format      ascii;
    class       volScalarField;
    location    "1920";
    object      T;
}
// * * * * * * * * * * * * * * * * * * * * * * * * * * * * * * * * * * * * * //

dimensions      [0 0 0 1 0 0 0];

internalField   nonuniform List<scalar> 
238806
(
0.000320514
0.000326752
0.000454637
0.000467312
0.000443727
0.000359067
0.000357452
0.000320791
0.000315159
0.000473212
0.000481485
0.000424263
0.000638277
0.000649425
0.000704342
0.000664271
0.000488774
0.000500059
0.000283752
0.000283058
0.000581479
0.000602958
0.000666708
0.000676559
0.000702035
0.000471378
0.000485926
0.000490429
0.000519895
0.000514028
0.000284944
0.000282793
0.000581343
0.000552539
0.000499093
0.000478645
0.0862131
0.0865987
0.000459404
0.00044873
0.00046441
0.000491672
0.000310676
0.000308811
0.000285383
0.000286251
0.00072171
0.000680607
0.000525237
0.00049952
0.000395106
0.000388684
0.000611842
0.00062301
0.0245543
0.0243566
0.00046421
0.000451279
0.000451234
0.000427855
0.000438048
0.000445812
0.000439455
0.000443927
0.000430455
0.000287266
0.000287901
0.000310087
0.000314757
0.00034755
0.00035565
0.000584042
0.000614309
0.000514488
0.000539995
0.000431012
0.000441853
0.000500771
0.0004804
0.00642965
0.00640633
0.000461451
0.000439627
0.000337213
0.000334238
0.000398088
0.000408955
0.000533173
0.000519554
0.000506309
0.00051839
0.000414509
0.000425965
0.000317786
0.000319978
0.000436938
0.000424181
0.000439947
0.000460121
0.00048322
0.000288977
0.000307669
0.000310905
0.000315243
0.000313687
0.000808599
0.000839584
0.000547521
0.000573307
0.000567649
0.000597324
0.000441173
0.000427795
0.000401755
0.000408199
0.000629595
0.000603191
0.0916642
0.0915403
0.0919454
0.000630958
0.000665682
0.000345065
0.000348677
0.000352816
0.000351307
0.000741341
0.000746671
0.000560473
0.000553217
0.000437555
0.000521272
0.000534264
0.000521082
0.000415582
0.000402881
0.000318622
0.000315928
0.000626333
0.00064895
0.000637907
0.000624686
0.0004207
0.000299134
0.000302347
0.000299326
0.000302034
0.000316089
0.00031255
0.000334766
0.00034043
0.000369656
0.000376406
0.000793945
0.000829366
0.000605347
0.000631676
0.000601563
0.000632249
0.000603956
0.000625603
0.000446347
0.000457291
0.000387252
0.000392294
0.000503358
0.000482658
0.005252
0.0052714
0.0859123
0.0862963
0.000477316
0.000456088
0.00153441
0.0015501
0.00154871
0.00033942
0.000342719
0.000419017
0.00042553
0.000793012
0.000793376
0.000551119
0.000516041
0.000500734
0.00050482
0.000335873
0.000337625
0.000315138
0.000312826
0.000311229
0.000309305
0.000339375
0.000343393
0.000449855
0.000433613
0.000430392
0.000551536
0.00054836
0.000448008
0.00045513
0.000286478
0.000284934
0.000301503
0.000305524
0.000305504
0.000309592
0.00037551
0.000387322
0.000348208
0.000342281
0.00115199
0.00113816
0.000891101
0.000929455
0.000740359
0.000704488
0.000644168
0.000611744
0.000556062
0.000530473
0.000440539
0.000455023
0.00041526
0.000404105
0.000405043
0.000400173
0.000499923
0.000479354
0.00302521
0.00290924
0.012704
0.0122552
0.0119024
0.0114775
0.0380607
0.0393398
0.000317483
0.000308223
0.000359466
0.000342915
0.000740499
0.000775914
0.00192276
0.00197511
0.000351183
0.000354876
0.00040242
0.000396629
0.000422134
0.000434457
0.000497618
0.000513035
0.000654678
0.000646392
0.0004758
0.000460858
0.000319026
0.000316458
0.000317036
0.00031457
0.00031578
0.000313368
0.000482607
0.000481006
0.000346466
0.000341364
0.000451722
0.000459161
0.000596777
0.000627126
0.00041029
0.000561693
0.000378463
0.000387533
0.000370648
0.000287604
0.000289385
0.000292499
0.000294805
0.000306246
0.000303283
0.000330376
0.000322962
0.000326017
0.000325651
0.000342848
0.000345945
0.000923115
0.000945501
0.000800295
0.00077994
0.00091673
0.000954633
0.000820748
0.000860403
0.000665333
0.000700818
0.000629055
0.000663151
0.000620147
0.000651102
0.000639266
0.000653245
0.000487372
0.000507528
0.00043117
0.00043764
0.000416944
0.000427809
0.000623343
0.000619558
0.000525109
0.000521607
0.000529787
0.000551299
0.00488251
0.0047125
0.00366503
0.0035268
0.00574508
0.00596014
0.00664625
0.00666964
0.0140324
0.0139644
0.0393966
0.0381082
0.0922747
0.000493607
0.0004736
0.00066866
0.000635835
0.021475
0.022277
0.000916374
0.000884219
0.0015666
0.00159433
0.000359321
0.000366393
0.000347431
0.000345944
0.000413611
0.000407433
0.000446253
0.000461856
0.00058006
0.000577148
0.000588138
0.000599403
0.000362778
0.000352802
0.000320243
0.000318003
0.000324587
0.00032718
0.000327009
0.000312742
0.00031507
0.000452264
0.000450634
0.000381228
0.000371687
0.000350447
0.000345192
0.0004919
0.000512335
0.000677317
0.000367804
0.000379938
0.000491433
0.000468214
0.0004339
0.000419919
0.000421563
0.00043275
0.000318749
0.000324454
0.00028996
0.000288245
0.000292832
0.000293816
0.000294439
0.0002977
0.000297794
0.000301421
0.000442907
0.000428178
0.000400265
0.000388109
0.000319778
0.000321722
0.000315307
0.000317938
0.000341037
0.000341211
0.000350568
0.000356794
0.000385109
0.000396362
0.0010986
0.00111357
0.00075203
0.000725381
0.000943515
0.00098097
0.000843206
0.000882457
0.000758294
0.000798517
0.000700172
0.000739799
0.000639798
0.000670945
0.00062666
0.000613918
0.000503852
0.000524361
0.000422333
0.000415883
0.000478199
0.000459449
0.000545078
0.000522349
0.000547949
0.000544413
0.000509507
0.00410527
0.0039681
0.0030309
0.00291529
0.00394536
0.00409841
0.0044624
0.0042926
0.0122509
0.0127029
0.0108411
0.0105082
0.0130388
0.0134933
0.0639091
0.0637365
0.0162158
0.015684
0.000395392
0.000385964
0.000399105
0.000694551
0.00070845
0.000695954
0.000714743
0.000705143
0.000693145
0.0236921
0.023501
0.00136199
0.00140233
0.0015058
0.00153046
0.00156737
0.00156874
0.000939792
0.000934612
0.000349401
0.000345111
0.000358381
0.00036325
0.000383107
0.000381343
0.000410386
0.000481646
0.000479546
0.000496997
0.000606829
0.000636613
0.000634388
0.000625944
0.000326303
0.000328075
0.000324362
0.00032064
0.000322933
0.00031986
0.000321698
0.000312182
0.00031017
0.00051718
0.00051557
0.000456025
0.000470709
0.000425914
0.000438617
0.000345921
0.000351504
0.00046693
0.000448606
0.000535612
0.000518461
0.000530331
0.00066034
0.000579094
0.000576464
0.000588081
0.000599769
0.00053302
0.000434017
0.000339047
0.000331502
0.000303761
0.000308109
0.000290559
0.000292653
0.000295325
0.000291966
0.000286827
0.000288807
0.00029826
0.000295752
0.000414322
0.000428048
0.000365108
0.000376562
0.000340963
0.00033272
0.000333219
0.000332947
0.000321732
0.00032681
0.000359805
0.000359835
0.000354879
0.000351687
0.000387422
0.000380517
0.0012231
0.00120295
0.000958775
0.000915758
0.000676271
0.00064972
0.000812049
0.000780955
0.000880152
0.000845179
0.000805657
0.000770039
0.000866601
0.000905418
0.000778454
0.000818641
0.000719327
0.000759039
0.000611114
0.000584936
0.000660488
0.000691738
0.000555913
0.000549229
0.000584791
0.000568126
0.000521456
0.000542252
0.000476646
0.000457232
0.000484573
0.000491125
0.000396834
0.000395194
0.000446356
0.000459155
0.000473265
0.000490547
0.000520704
0.000543466
0.00057399
0.000597872
0.0068016
0.00704187
0.00471073
0.00488031
0.00366788
0.00352902
0.00545562
0.00547545
0.00597633
0.00575992
0.00748731
0.00775511
0.0114957
0.0115432
0.010621
0.0105976
0.013558
0.0130994
0.0687222
0.0704675
0.0873058
0.087704
0.0250664
0.0249955
0.0409876
0.0409218
0.000467733
0.00049341
0.000320127
0.00032317
0.000761089
0.000776695
0.000500859
0.000526547
0.000530715
0.000500563
0.000679614
0.000647006
0.0208354
0.0206723
0.0693985
0.0697416
0.00223515
0.00225108
0.00180155
0.0018494
0.00180095
0.00176414
0.00158478
0.00160444
0.00159114
0.00154557
0.000366384
0.000373649
0.000346903
0.00034089
0.000335423
0.000331006
0.000361748
0.000355065
0.000374194
0.000372431
0.000420798
0.000408998
0.000448725
0.000464665
0.000843901
0.000840774
0.000542226
0.00055832
0.000554015
0.000594412
0.000639081
0.000386966
0.000389192
0.000332163
0.000335379
0.00032259
0.000325252
0.000323426
0.000325328
0.000313497
0.000311337
0.000536103
0.00053448
0.000435338
0.00044815
0.000466916
0.000465306
0.000357308
0.000351798
0.000340553
0.000335715
0.000522814
0.000543653
0.00053974
0.00047006
0.000471304
0.000482598
0.000406166
0.00039433
0.000388579
0.000391729
0.000403183
0.000481482
0.000505716
0.000628073
0.00040515
0.000324698
0.000331078
0.000291486
0.000293601
0.000290681
0.00028987
0.000291328
0.000294176
0.000403993
0.000404578
0.000417053
0.000400425
0.000413635
0.000345942
0.000337937
0.000328857
0.000336695
0.000325184
0.000318162
0.000323924
0.000321146
0.000333293
0.000340578
0.000375472
0.000372149
0.000350051
0.00034998
0.000364705
0.000374545
0.000986445
0.000964814
0.00109028
0.00110901
0.00111509
0.00110602
0.000931146
0.000911267
0.000713586
0.000682299
0.000700317
0.000673709
0.000785705
0.000754525
0.000872548
0.000907277
0.000782939
0.000747175
0.000799187
0.000839177
0.000738638
0.000778666
0.00059165
0.000565665
0.000601315
0.000589143
0.000627699
0.00064949
0.000470478
0.000485955
0.000471914
0.000491716
0.000462962
0.000474036
0.000424799
0.000426902
0.000447598
0.000433263
0.000437109
0.000468854
0.000449424
0.000567303
0.000568842
0.000518294
0.000497751
0.000586684
0.000562737
0.000898321
0.000868339
0.00680678
0.00681273
0.00522941
0.00541775
0.00511797
0.00509509
0.00325994
0.0033872
0.0041035
0.00394967
0.00447366
0.00430274
0.0122504
0.012706
0.00873463
0.00875597
0.00835021
0.00832427
0.0102426
0.0099183
0.0101258
0.00980041
0.012147
0.0117495
0.0121723
0.0125992
0.0322751
0.0312334
0.0653508
0.0635497
0.0738764
0.0755334
0.0867809
0.0871718
0.0882357
0.0886502
0.0259228
0.0259676
0.0915923
0.09107
0.0915188
0.000515473
0.000507596
0.000318521
0.000326246
0.000334369
0.000298611
0.000306885
0.00028289
0.000276254
0.000700493
0.000713558
0.000559774
0.000542391
0.000540386
0.000515915
0.000409538
0.000419529
0.0004299
0.000418643
0.00123592
0.00132209
0.032388
0.0334454
0.0232252
0.0230412
0.0303185
0.0300765
0.0533202
0.053108
0.00172054
0.00165912
0.00128566
0.00132312
0.00174784
0.00179675
0.00189961
0.00195243
0.0016881
0.00172205
0.00156567
0.0015667
0.00158153
0.00152698
0.00154655
0.000412142
0.000401662
0.000351914
0.000357489
0.000343043
0.000339043
0.000341239
0.000355199
0.000351618
0.00034912
0.000379978
0.000373734
0.000412509
0.000414726
0.000398288
0.000388131
0.000481416
0.000465628
0.000797747
0.000792076
0.00051778
0.000533598
0.000575753
0.000538859
0.000399616
0.000404515
0.000330579
0.00032777
0.000330605
0.00033144
0.000323389
0.000326632
0.000314441
0.000316976
0.000499364
0.000497755
0.000461919
0.000476698
0.000399136
0.000387449
0.000357452
0.000363745
0.000336494
0.000331995
0.000495309
0.000475882
0.000477398
0.000682097
0.000708597
0.000667085
0.000527239
0.000538928
0.000580337
0.000594694
0.000605645
0.000640738
0.000397338
0.000380566
0.000470348
0.000451159
0.000295203
0.000291196
0.000297426
0.000300194
0.000295217
0.000297907
0.000291679
0.000289538
0.000372599
0.00037657
0.000389909
0.0003549
0.000345688
0.000326562
0.000334072
0.000313213
0.000313747
0.00033343
0.000327964
0.000370532
0.000370647
0.000366197
0.00035968
0.001167
0.00118776
0.00118439
0.00116741
0.00106309
0.00107294
0.000864696
0.000885018
0.00076095
0.000653394
0.000626939
0.000753166
0.000779757
0.000854191
0.000818986
0.000725336
0.000761188
0.000681878
0.000646895
0.000533137
0.000526499
0.000679001
0.000701028
0.000591458
0.000608339
0.000525241
0.000541493
0.000469896
0.000454822
0.000480877
0.0004921
0.000462956
0.000459917
0.000384547
0.000382474
0.000382298
0.00038391
0.000424692
0.000433528
0.000431129
0.000592184
0.000593534
0.000509465
0.000488737
0.000578044
0.000554068
0.00703307
0.00703755
0.00704674
0.00705258
0.00562359
0.00562736
0.00505565
0.00505827
0.00322021
0.00310829
0.00338916
0.00326156
0.00410889
0.00395421
0.005234
0.00543693
0.00555032
0.00553679
0.00774768
0.00775203
0.00904309
0.00906552
0.00750608
0.0074814
0.0141469
0.0146351
0.0107446
0.0107829
0.0111551
0.0115235
0.00982852
0.00950987
0.0100667
0.00974221
0.0138543
0.0143388
0.0120284
0.0116217
0.0126553
0.0122236
0.0180228
0.0180818
0.0655519
0.0657381
0.0757745
0.0741046
0.0865025
0.0868905
0.0808055
0.0790339
0.0390591
0.0403056
0.0259982
0.025112
0.0411183
0.0410531
0.0493639
0.0492564
0.000361648
0.000349593
0.000347555
0.000475639
0.000501486
0.000366255
0.000380721
0.00035776
0.000338547
0.00182285
0.00191322
0.000317431
0.000327242
0.000794724
0.000810824
0.000727744
0.000742559
0.000486042
0.000513129
0.000465038
0.000480098
0.00047106
0.000462851
0.00100922
0.000957525
0.00141949
0.00141204
0.0539344
0.0549785
0.0197768
0.0196203
0.0238832
0.0240743
0.0228572
0.0226728
0.0608294
0.0605829
0.0459024
0.0455739
0.00087644
0.000844472
0.00321435
0.00320122
0.00219813
0.00216791
0.000984888
0.000948746
0.00143515
0.00139524
0.00187306
0.00182575
0.00166616
0.00170062
0.00166187
0.00162959
0.00155695
0.00158514
0.00160133
0.000949988
0.000353401
0.000359986
0.000330499
0.000334805
0.000365719
0.000371364
0.000377511
0.000369216
0.00040339
0.00040136
0.000451473
0.000436952
0.000448478
0.000433463
0.000837389
0.000836774
0.000870393
0.000739739
0.000752293
0.00047018
0.000484506
0.00060741
0.000619948
0.000378084
0.000371151
0.000373504
0.000378406
0.000342063
0.00034452
0.000328972
0.00031765
0.000320417
0.00032747
0.000329421
0.000479091
0.000493007
0.000509356
0.00050323
0.000442352
0.000429641
0.000364446
0.000372611
0.000416639
0.000409801
0.000401458
0.00045779
0.000443025
0.000505221
0.000484466
0.000583414
0.000559651
0.000563723
0.000473702
0.000459629
0.000479617
0.000502502
0.000512178
0.00055346
0.000566507
0.000617746
0.000652543
0.000415802
0.000320047
0.000321202
0.000301324
0.000300004
0.000296176
0.000293786
0.000295596
0.000295564
0.000354865
0.000351539
0.000382911
0.000392415
0.000356075
0.000346985
0.000337418
0.000330074
0.000337854
0.000334851
0.000319545
0.000319087
0.000361434
0.000364702
0.00108976
0.00111204
0.00101267
0.00103038
0.00112996
0.00114774
0.00109872
0.00109195
0.00082068
0.000840786
0.000819808
0.000799301
0.000705229
0.000736515
0.000725562
0.000698917
0.000720257
0.000684497
0.000622581
0.00062876
0.000669095
0.000686905
0.000562514
0.000546051
0.000540254
0.000561316
0.000472011
0.000465489
0.000500081
0.000511446
0.000441687
0.000444256
0.000395391
0.000397531
0.000411093
0.000409327
0.000411725
0.00042069
0.000593346
0.000597005
0.000618172
0.000619168
0.00053996
0.000531229
0.0067969
0.00679196
0.00582739
0.0058315
0.00543059
0.00524093
0.00407963
0.00393001
0.00490043
0.00487452
0.00304723
0.00302753
0.0031383
0.00313699
0.00351904
0.00365585
0.00380146
0.00379789
0.00448689
0.00431497
0.00537406
0.00517529
0.012303
0.0127344
0.0074845
0.00748041
0.00719586
0.00745907
0.00717025
0.00714745
0.00798375
0.00795793
0.00837645
0.0124426
0.0120056
0.0115802
0.0111719
0.0106935
0.0111275
0.0114955
0.0098567
0.00953788
0.00948208
0.00945381
0.0102242
0.0101984
0.010569
0.010953
0.013534
0.0130851
0.0120908
0.0116907
0.0127112
0.012276
0.017537
0.0169548
0.0150806
0.0150432
0.0647448
0.0665128
0.0615375
0.063339
0.0724052
0.0721867
0.0837314
0.0848734
0.0870485
0.087443
0.0833022
0.0846719
0.039012
0.0402491
0.0238096
0.0237776
0.0321798
0.0322034
0.0439317
0.0440112
0.0423209
0.0423972
0.0609436
0.0608942
0.0909763
0.0909598
0.000378271
0.000362537
0.000444126
0.000452811
0.000354326
0.000365561
0.000402398
0.000416931
0.000335176
0.000340221
0.000352703
0.000571793
0.000562015
0.000264302
0.000260141
0.00076044
0.000789817
0.000775413
0.000681306
0.000668487
0.000541458
0.000569721
0.000399983
0.00040027
0.000391638
0.000386785
0.000444752
0.000442125
0.000501164
0.00126781
0.00124408
0.00132992
0.00124395
0.0313511
0.0311264
0.0597285
0.0600621
0.0289196
0.0290891
0.0219597
0.0218035
0.0247527
0.024951
0.0594944
0.0591829
0.0469729
0.0473089
0.00108856
0.00104538
0.000963934
0.000928871
0.00309092
0.00310249
0.00282919
0.00274211
0.00247722
0.00246836
0.00226393
0.00227357
0.00135676
0.00131962
0.00187456
0.00192785
0.00199104
0.00204132
0.00164972
0.0016846
0.00172881
0.00169484
0.00154099
0.00151798
0.00037993
0.000388601
0.000373917
0.000382344
0.00033703
0.000332209
0.000343897
0.000339104
0.000382485
0.000389289
0.000392844
0.000390979
0.00042369
0.000410225
0.000433777
0.000420785
0.000686258
0.00068793
0.000718448
0.00050434
0.000510747
0.000489407
0.000501221
0.000571883
0.000587218
0.000381187
0.000391323
0.000333476
0.000338846
0.000321496
0.000318518
0.000546224
0.000540016
0.000486442
0.000492499
0.00033279
0.000329262
0.000369136
0.000363042
0.000351558
0.000357663
0.000537345
0.000563088
0.000550924
0.000475267
0.000484661
0.000442831
0.000430398
0.000511832
0.000502325
0.000491562
0.000458102
0.000598272
0.000595474
0.00115366
0.00114502
0.000445301
0.000429188
0.000485445
0.000516358
0.000493249
0.000605839
0.000622409
0.000634586
0.000574852
0.000586518
0.000314931
0.000310729
0.00031225
0.000315015
0.00029732
0.000296183
0.000284949
0.000283291
0.000284562
0.000303332
0.000303497
0.000296144
0.000297374
0.000345338
0.000342377
0.000380068
0.000371236
0.000376883
0.000366182
0.000338287
0.000346992
0.000327637
0.000330533
0.00104958
0.00107268
0.00121007
0.00124486
0.00104903
0.00106878
0.000962131
0.000979048
0.000977819
0.00101395
0.00101322
0.000999606
0.000857912
0.000873581
0.000835009
0.000842946
0.00072929
0.000760533
0.000604124
0.000597449
0.000659259
0.00064181
0.000652691
0.000674621
0.000521738
0.000505706
0.000560245
0.000581532
0.000454184
0.000447689
0.000441447
0.000443445
0.000409471
0.000411618
0.000399207
0.000408231
0.000568323
0.000571909
0.00279054
0.00279045
0.00604975
0.00604663
0.00618537
0.00640823
0.00522367
0.00541147
0.00470846
0.0048773
0.00392341
0.00407875
0.00622071
0.00624435
0.00409086
0.00425187
0.0033017
0.00331181
0.00369707
0.00354131
0.00339163
0.00326402
0.00412123
0.00396436
0.00365878
0.00352145
0.00380522
0.00450278
0.00433013
0.00466437
0.00425719
0.00442179
0.00514011
0.0053352
0.0144677
0.0149734
0.0136356
0.0131642
0.00989932
0.0099038
0.00799006
0.00797833
0.00654391
0.00652198
0.00669296
0.00645305
0.00848371
0.00851068
0.00770406
0.00767901
0.00887749
0.00885094
0.0128178
0.0132684
0.0111318
0.0110771
0.00959657
0.00956653
0.0104845
0.0108239
0.00977175
0.0100971
0.00919543
0.0091693
0.0109869
0.0110181
0.0130411
0.0134894
0.012449
0.0125073
0.0113493
0.0117558
0.0140974
0.01362
0.0262446
0.0271562
0.0157219
0.0152022
0.0161428
0.0161779
0.0151123
0.0354387
0.0365885
0.0776582
0.0757895
0.0649126
0.0631341
0.0765218
0.0748406
0.0761932
0.0745063
0.0794566
0.0778497
0.0851387
0.0839862
0.0865975
0.086347
0.0850795
0.0836834
0.0880175
0.0884279
0.0162214
0.0156863
0.0319203
0.0319651
0.0370459
0.0370995
0.0344399
0.0356102
0.0452371
0.0453403
0.042471
0.0425427
0.0574787
0.0573742
0.0783499
0.0783137
0.0919793
0.0922416
0.000927221
0.000917664
0.000481397
0.000459817
0.00047148
0.000423573
0.000432529
0.000406846
0.000413928
0.000420716
0.000377352
0.000309656
0.000767508
0.000791411
0.000422966
0.000437522
0.000268817
0.000267055
0.00033762
0.000327342
0.00074539
0.000731961
0.000510094
0.000491588
0.000594915
0.000566795
0.000393328
0.000406917
0.000389876
0.000416845
0.000407632
0.000404181
0.000418891
0.000583297
0.000558508
0.000555995
0.00178202
0.0017889
0.00104519
0.000993741
0.00299018
0.00286319
0.0171384
0.0171491
0.0417658
0.040467
0.0593739
0.0597057
0.0310504
0.0300557
0.0166299
0.0167295
0.0226136
0.0227756
0.0220484
0.0218711
0.0273075
0.0270882
0.0336844
0.033429
0.0688684
0.0692155
0.0516048
0.0512393
0.0743693
0.0755992
0.00085965
0.000828024
0.000895367
0.00086317
0.00222831
0.00230575
0.00256358
0.00266271
0.00254368
0.00258645
0.00252736
0.00221048
0.00220005
0.00112607
0.00116888
0.00157168
0.00161309
0.00184796
0.00190166
0.00196228
0.00201359
0.00196578
0.00192168
0.00147806
0.00150819
0.00167901
0.00171316
0.00162972
0.00166077
0.000980083
0.000978869
0.000370261
0.000378966
0.000381822
0.00039175
0.000340286
0.000342313
0.00033467
0.000330576
0.000392037
0.000399411
0.000366177
0.000364456
0.000421957
0.000434884
0.000892792
0.000887845
0.00068889
0.000524484
0.000326451
0.000323935
0.000521079
0.000527256
0.000326053
0.00037039
0.000377496
0.000358354
0.000364667
0.000437541
0.000428904
0.000449239
0.000432353
0.000421356
0.000421249
0.000534208
0.000569246
0.000563833
0.000717105
0.000853872
0.000847551
0.00043242
0.00041546
0.000505266
0.000493671
0.00056875
0.000541765
0.00066798
0.00033087
0.000339565
0.000356334
0.000316808
0.000314879
0.000312999
0.000319012
0.00030811
0.000312368
0.000289428
0.000289468
0.000284526
0.000285373
0.000307971
0.000308261
0.000301159
0.000299824
0.000356646
0.00035006
0.000365295
0.000361606
0.000354921
0.00036478
0.000880932
0.00090165
0.000968939
0.000993528
0.00109708
0.0011357
0.00117353
0.00107279
0.00105649
0.00108503
0.00112587
0.00108464
0.00104325
0.000937362
0.000904591
0.00094976
0.000887518
0.000532077
0.000520572
0.000579674
0.000572945
0.000706809
0.000728848
0.00050322
0.000487445
0.000459417
0.000461281
0.000418744
0.000414529
0.00312139
0.00322108
0.00192619
0.00193061
0.0106023
0.0102455
0.0039208
0.00377509
0.00395925
0.00409913
0.005816
0.00580857
0.00470162
0.00486907
0.00523795
0.0054272
0.0050522
0.00346915
0.00336033
0.0058025
0.00577806
0.00604353
0.00626768
0.00402562
0.00388948
0.00324391
0.00313181
0.00314921
0.00316725
0.00315556
0.00316401
0.00301888
0.00290302
0.00314076
0.00380914
0.00381315
0.00366189
0.00352413
0.00452074
0.00434784
0.00463801
0.00465027
0.00602848
0.00580819
0.00534749
0.00515117
0.013593
0.0140609
0.0131632
0.0136336
0.0102034
0.0105368
0.00989186
0.00673131
0.00672781
0.00871208
0.00901912
0.0074113
0.00743533
0.0069636
0.00698627
0.00691589
0.00689428
0.00758121
0.00755605
0.00800944
0.00772906
0.0085701
0.00854344
0.00890294
0.0143024
0.0138186
0.0119754
0.0124154
0.00988602
0.0102089
0.0115524
0.0111863
0.0101534
0.0101805
0.00962466
0.00931119
0.00986716
0.00984201
0.0102438
0.0139068
0.0143925
0.0121967
0.0117996
0.0125613
0.011802
0.0113896
0.0142222
0.0137404
0.0131583
0.015627
0.0156175
0.0157598
0.0152372
0.0156664
0.0156904
0.0161989
0.0156437
0.0311424
0.0321803
0.0534481
0.0536828
0.0738453
0.0733207
0.0747777
0.065136
0.0633483
0.065154
0.0669503
0.070678
0.0689263
0.0728014
0.0726107
0.0796598
0.0780321
0.0853913
0.0842267
0.0860855
0.0858124
0.0783436
0.0801242
0.0848794
0.0834949
0.0870504
0.0880792
0.019912
0.020595
0.0222061
0.0229805
0.0328705
0.0329244
0.029771
0.0297939
0.0254561
0.0246519
0.0333348
0.0333268
0.0369277
0.0368921
0.0444726
0.0430793
0.045437
0.045526
0.0478682
0.0477562
0.0572661
0.0571725
0.0907967
0.0909141
0.0919606
0.0920524
0.0921953
0.00106632
0.00110364
0.000280559
0.000286852
0.000433332
0.000419437
0.000438264
0.00048596
0.00043299
0.000428467
0.000375613
0.000397488
0.000412115
0.000397432
0.0018215
0.00191093
0.000533813
0.000543593
0.000322984
0.000333577
0.000273572
0.000273046
0.000262984
0.000259275
0.000280562
0.000276827
0.000317124
0.000321697
0.000674376
0.000640115
0.000526334
0.000508962
0.000597917
0.000611647
0.000624631
0.000397771
0.000416202
0.000411158
0.000345315
0.000332299
0.000431856
0.000422748
0.000450733
0.000297773
0.000289312
0.000287582
0.00133327
0.00131447
0.00129213
0.00107439
0.00115337
0.00455855
0.00451873
0.00701038
0.0070294
0.0232178
0.0230999
0.0430134
0.0416697
0.042
0.0406958
0.0590312
0.0593613
0.0515483
0.0528969
0.0298813
0.0308709
0.0168323
0.0167078
0.0234495
0.0236175
0.0239557
0.0241351
0.0212659
0.0210952
0.0270023
0.027216
0.0292857
0.029051
0.0579974
0.057593
0.0674112
0.0682479
0.0704583
0.0708001
0.049132
0.0488079
0.051957
0.0516757
0.0629819
0.0644284
0.0796534
0.0800451
0.000927993
0.000892862
0.000949887
0.000984878
0.00228425
0.00220627
0.00268105
0.00258249
0.00205361
0.00202558
0.00249344
0.00251363
0.00218649
0.00217003
0.0014407
0.00149944
0.00132174
0.00129147
0.00182013
0.00187425
0.00182385
0.00177545
0.00197811
0.00202889
0.00187959
0.00183941
0.00149696
0.00147075
0.00162997
0.00166535
0.001615
0.0016463
0.00169335
0.00172726
0.00102373
0.00105208
0.0003607
0.000357832
0.000365666
0.000390224
0.000399672
0.00034566
0.000348252
0.00038665
0.000905639
0.000973905
0.000951579
0.000332481
0.000331278
0.000329447
0.000379335
0.000389968
0.000503012
0.0004878
0.000392866
0.000405401
0.000411399
0.000466887
0.000608781
0.00089369
0.000892164
0.000706764
0.000743417
0.000750466
0.000445495
0.000461981
0.000557502
0.000545684
0.000359089
0.000367138
0.000373956
0.000327672
0.000330495
0.000305783
0.000299988
0.00031037
0.00030786
0.000313217
0.000318065
0.000292316
0.000292337
0.00028802
0.00028718
0.000310071
0.000308565
0.000299217
0.000299296
0.000360148
0.000367522
0.00102772
0.00100699
0.0010193
0.00105814
0.00115057
0.00112908
0.000995703
0.00104128
0.0010519
0.00105746
0.000860748
0.000542295
0.000553959
0.000511522
0.000504927
0.000633141
0.000616008
0.000424804
0.000426897
0.00156365
0.00152228
0.00113779
0.00114826
0.00200681
0.00200695
0.00956304
0.00956548
0.00957996
0.00958352
0.00374274
0.00361085
0.00471451
0.00488474
0.00487021
0.00469981
0.00352017
0.0034093
0.00625694
0.00626193
0.00561884
0.00582216
0.00504813
0.0050429
0.00523401
0.00542282
0.00348125
0.00337306
0.00559248
0.00556764
0.00601978
0.00599574
0.00479521
0.00462877
0.00329482
0.0031813
0.00326915
0.00315639
0.00318267
0.00306641
0.00351418
0.00367143
0.00300711
0.00298637
0.00314438
0.00314926
0.00290249
0.00301796
0.00395909
0.00411476
0.00468068
0.00469889
0.00444391
0.00427633
0.00579148
0.00601051
0.00536039
0.00516285
0.014436
0.0149411
0.0145666
0.0150733
0.0131654
0.0136337
0.0102463
0.0102539
0.00892172
0.00892132
0.0069706
0.00697427
0.00739736
0.00766206
0.00707074
0.00708981
0.00717236
0.00714863
0.00649941
0.0064764
0.00631694
0.00629601
0.0087812
0.00880874
0.00811331
0.00813962
0.00803517
0.00806101
0.00745701
0.00743286
0.00892748
0.00895174
0.00827231
0.00824589
0.0123342
0.01193
0.0137884
0.0142698
0.0119481
0.0123918
0.00971502
0.00968876
0.0104303
0.0107732
0.0111754
0.0115434
0.0114606
0.011094
0.00965176
0.00933799
0.00952486
0.00949941
0.0137982
0.0142817
0.0122401
0.0118424
0.0128256
0.0123891
0.0118501
0.0114311
0.0132751
0.013217
0.0262125
0.0271264
0.0179729
0.0185838
0.0162514
0.0162943
0.0167601
0.0167481
0.0156164
0.01558
0.0352796
0.0364249
0.0561281
0.0577829
0.0809615
0.0814067
0.0698116
0.0679264
0.0673828
0.0675854
0.0687148
0.0669283
0.0677735
0.0659916
0.0671454
0.0653333
0.0708814
0.069129
0.074316
0.075996
0.0855998
0.0859834
0.0856323
0.0844549
0.0804506
0.0786526
0.085272
0.0838671
0.0886449
0.0890675
0.0890194
0.0894501
0.0186373
0.0186444
0.0206046
0.0199216
0.0230189
0.0222505
0.0329721
0.0330173
0.0269161
0.0269089
0.0254218
0.0246411
0.0345079
0.0345187
0.0333308
0.0322188
0.0395084
0.0382001
0.0368551
0.0368169
0.0438477
0.0437592
0.0512333
0.0509749
0.059099
0.059172
0.0742347
0.0723313
0.0703959
0.0704078
0.0877055
0.0877066
0.0914341
0.00114261
0.00117993
0.000857284
0.000896071
0.000295436
0.000303454
0.000521753
0.000518247
0.00038626
0.000404689
0.000451439
0.000460895
0.000361523
0.000356808
0.0003466
0.000349037
0.000388594
0.000376335
0.000309256
0.000297795
0.000993041
0.00101452
0.000847389
0.000828659
0.000525988
0.000508972
0.000429386
0.000448803
0.000326656
0.000316513
0.000278196
0.000278771
0.000279486
0.000276685
0.000262389
0.000259123
0.000284162
0.000290259
0.000261789
0.000264465
0.000307297
0.000309465
0.000589695
0.000611865
0.000603415
0.000525884
0.000582194
0.000553834
0.000471251
0.000445673
0.000393847
0.000381456
0.000371631
0.000359807
0.00035158
0.00037078
0.000541859
0.000530486
0.000561695
0.000364546
0.000363827
0.00046652
0.000458378
0.00140757
0.00136919
0.00136262
0.00132737
0.00106359
0.0011002
0.00134356
0.00125834
0.00171199
0.00170565
0.0029025
0.00280832
0.00202995
0.00204386
0.0223909
0.0215852
0.0207426
0.019971
0.0335701
0.0324455
0.0337571
0.0349225
0.0552375
0.0541896
0.0591387
0.0587872
0.054209
0.055468
0.0263911
0.0255283
0.0183498
0.0184446
0.0143796
0.014485
0.0188117
0.0186689
0.0323124
0.0313844
0.0229358
0.0221137
0.0214362
0.0216063
0.020509
0.0203452
0.029662
0.02989
0.0262674
0.0260616
0.0282823
0.028055
0.0383837
0.038093
0.0551042
0.0547497
0.0687842
0.0679552
0.0460827
0.046381
0.0477138
0.0473866
0.0505513
0.0502398
0.0536613
0.0669944
0.0684624
0.0791891
0.0795745
0.00090986
0.000944945
0.00318708
0.0031719
0.00187338
0.00180737
0.00232578
0.00223566
0.00311354
0.00322136
0.00193438
0.0019056
0.00206199
0.00203301
0.00244443
0.00247043
0.00239106
0.00237617
0.00234594
0.00234223
0.00215905
0.00216414
0.00143249
0.00149176
0.00135711
0.0013284
0.00153296
0.00157992
0.00167014
0.00162991
0.00165617
0.00170102
0.00194375
0.00199558
0.00200777
0.00205707
0.00183328
0.00187382
0.00176259
0.00179949
0.00153255
0.00150293
0.00158432
0.0016163
0.00165552
0.00162433
0.00111707
0.00107311
0.000989384
0.000373129
0.000366552
0.000964068
0.000990799
0.000507648
0.000523125
0.000391084
0.000381503
0.000326203
0.000661164
0.000622884
0.000568359
0.000477597
0.000459846
0.000423723
0.0010347
0.00098872
0.000902696
0.000863305
0.000760705
0.000809806
0.000462601
0.000450947
0.00034852
0.000357161
0.000341376
0.000323177
0.000309414
0.00031153
0.000319114
0.000324441
0.000304354
0.000309014
0.000293958
0.000292844
0.00028687
0.000286996
0.000303944
0.00030537
0.000944109
0.000924128
0.00103303
0.00100915
0.00102713
0.00101431
0.000565197
0.000577058
0.00149057
0.001533
0.000812889
0.000782333
0.00145603
0.00139314
0.00271142
0.00261514
0.00268131
0.00268169
0.0113888
0.0114011
0.00994119
0.00994947
0.007547
0.00781236
0.00625021