/*--------------------------------*- C++ -*----------------------------------*\
  =========                 |
  \\      /  F ield         | OpenFOAM: The Open Source CFD Toolbox
   \\    /   O peration     | Website:  https://openfoam.org
    \\  /    A nd           | Version:  7
     \\/     M anipulation  |
\*---------------------------------------------------------------------------*/
FoamFile
{
    version     2.0;
    format      ascii;
    class       volScalarField;
    location    "600";
    object      T;
}
// * * * * * * * * * * * * * * * * * * * * * * * * * * * * * * * * * * * * * //

dimensions      [0 0 0 1 0 0 0];

internalField   nonuniform List<scalar> 
238806
(
0.953823
0.964151
0.813721
1.09369
0.976708
0.975743
0.962983
0.962939
0.960588
0.87725
0.905817
0.989201
0.974976
0.974942
0.939702
0.939423
0.881186
0.884113
0.967385
0.979125
0.965577
0.961102
0.924793
0.839122
0.950028
0.82513
0.843751
0.846165
0.897632
0.94443
0.974158
0.973196
0.922039
0.937129
0.967618
0.967836
0.25168
0.240025
0.912719
0.952438
0.943678
1.0426
0.966884
0.966838
0.978256
0.966041
0.865663
0.870841
0.944245
0.944635
0.974817
0.973225
0.975467
0.974889
0.900213
0.895052
0.865715
0.845535
0.89488
0.839618
0.864619
0.884432
0.908306
0.927332
0.93335
0.974943
0.977645
0.959868
0.953924
0.968586
0.969291
0.943526
0.936973
0.945662
0.944891
0.978592
0.969862
0.969602
0.969925
0.937785
0.940164
0.93927
0.945098
0.952209
0.956907
0.962164
0.964228
0.842779
0.86026
0.852698
0.848868
0.918604
0.920728
0.952545
0.929644
0.967985
0.968406
0.908411
0.882976
1.03799
0.965453
0.974967
0.968018
0.975126
0.974843
0.953998
0.949614
0.948307
0.94555
0.941619
0.930828
0.959745
0.969088
0.972988
0.974064
0.972332
0.973231
0.144156
0.050955
0.0834729
0.750144
0.762906
0.955313
0.951185
0.97644
0.96324
0.910465
0.888373
0.851363
0.914562
0.938104
0.845208
0.843781
1.05055
0.833091
0.882889
0.959448
0.959127
0.729851
0.908515
0.883224
0.966657
0.930225
0.92905
0.898044
0.972855
0.965405
0.969879
0.975918
0.973079
0.966108
0.975815
0.970392
0.943828
0.941988
0.953867
0.949051
0.944377
0.940801
0.966467
0.962505
0.977942
0.971897
0.976506
0.976457
0.970846
0.971344
0.947512
0.947316
0.426748
0.412974
0.941771
0.946946
0.674811
0.683333
0.53034
0.955856
0.952085
0.972839
0.970084
0.888313
0.85904
1.12855
0.8409
0.827007
0.860403
0.824888
0.94976
0.951866
0.952796
0.976532
0.976624
0.908691
0.919734
0.874087
0.857454
0.889437
0.948229
1.04441
0.901787
0.977557
0.948249
0.95661
0.956253
0.943256
0.957838
0.947573
0.954458
0.955059
0.967259
0.974055
0.842996
0.839629
0.940323
0.9368
0.933742
0.940361
0.88472
0.906092
0.94504
0.946802
0.968515
0.962587
0.964115
0.978424
0.976035
0.976058
0.969436
0.969731
0.948513
0.949238
0.927209
0.928191
0.912935
0.91438
0.881403
0.879325
0.961318
0.959989
0.878382
0.902733
0.676918
0.59195
0.917184
0.916889
0.955649
0.956126
0.969495
0.972488
0.970024
0.969961
0.943254
0.946716
0.903067
0.886717
0.877531
0.894271
0.917459
0.926153
0.928146
0.929735
0.975822
0.976545
0.969735
0.96689
0.947334
0.943767
0.922189
0.926589
0.868209
0.858282
0.914554
0.89391
0.834026
1.03565
0.92053
0.955964
0.947349
0.970178
0.962475
0.966939
0.974071
0.963257
0.960167
0.972016
0.96976
0.975513
0.977151
0.920757
0.926736
0.865624
0.861976
0.941001
0.938328
0.9343
0.925242
0.93257
0.919562
0.915873
0.896422
0.944694
0.942666
0.973623
0.973913
0.956645
0.951393
0.972454
0.973068
0.978933
0.96728
0.968538
0.96761
0.970376
0.969114
0.973833
0.974112
0.815449
0.815016
0.944835
0.94559
0.930203
0.929038
0.939192
0.936793
0.898287
0.895839
0.874863
0.877028
0.0963669
0.944874
0.951443
0.834242
0.859238
0.806913
0.803902
0.969733
0.969914
0.770482
0.770898
0.958628
0.875622
0.976791
0.963886
0.969644
0.972661
0.968707
0.964228
0.949667
0.995425
0.86679
1.00675
0.930247
0.925203
0.828951
0.913434
0.97692
0.975067
0.970448
0.966798
0.966715
0.970224
0.967598
0.921264
0.943138
0.890466
0.912527
0.913155
0.871933
0.893632
0.943563
0.947468
0.875719
0.886988
1.13762
0.919285
0.907612
0.905374
0.942039
0.930583
0.914468
0.926721
0.975551
0.976817
0.95014
0.926955
0.95335
0.931167
0.950476
0.948831
0.9461
0.944764
0.974741
0.974556
0.977384
0.976355
0.969558
0.971366
0.97476
0.968322
0.969984
0.970276
0.846099
0.851712
0.957246
0.961705
0.941426
0.939227
0.93742
0.930668
0.913573
0.897632
0.879568
0.869852
0.945152
0.943574
0.9743
0.971848
0.959254
0.953344
0.973528
0.972744
0.974615
0.973737
0.969022
0.969304
0.969918
0.968768
0.973582
0.91592
0.9168
0.949617
0.950271
0.941008
0.939999
0.945294
0.946038
0.925358
0.92444
0.911554
0.912945
0.899096
0.897482
0.782814
0.748794
0.88471
0.886455
0.889918
0.906669
0.897467
0.914084
0.922483
0.541662
0.747043
0.794486
0.812281
0.902014
0.897009
0.945347
0.945921
0.797088
0.799662
0.482265
0.196023
0.827189
0.662912
0.848007
0.956961
0.969829
0.968297
0.973664
0.961716
0.970344
0.95169
0.948597
0.95615
0.860557
0.825324
0.946327
0.994487
0.822572
1.00449
0.851635
0.952539
0.929513
0.968936
0.959113
0.969485
0.969546
0.969186
0.966217
0.970344
0.970211
0.970633
0.970444
0.954345
0.952575
0.92414
0.930247
0.961114
0.874821
0.881153
0.864497
0.832069
0.99173
0.907736
0.955182
0.873116
0.903548
0.935843
0.932386
0.93607
0.925653
0.956016
0.94806
0.965001
0.964765
0.967377
0.95995
0.964058
0.971541
0.955012
0.957121
0.960592
0.961591
0.977428
0.977302
0.971671
0.969684
0.970882
0.963733
0.970922
0.969243
0.977087
0.975127
0.971389
0.976207
0.867827
0.861178
0.831762
0.883413
0.952468
0.957574
0.94834
0.952568
0.942911
0.94515
0.94125
0.943341
0.939302
0.934445
0.92273
0.908488
0.890473
0.87659
0.947574
0.95191
0.945859
0.944098
0.971023
0.970638
0.969572
0.972616
0.961413
0.955432
0.948582
0.951457
0.97154
0.971973
0.973829
0.970492
0.970302
0.973266
0.972642
0.973331
0.967395
0.967164
0.974437
0.974675
0.595596
0.589659
0.725858
0.731703
0.946501
0.947138
0.946623
0.946419
0.929821
0.930936
0.880359
0.879686
0.880141
0.866648
0.913191
0.910192
0.899878
0.901443
0.616107
0.609356
0.349501
0.335848
0.8574
0.861651
0.841261
0.849766
0.875941
0.867869
0.90806
0.907989
0.901455
0.905489
0.933907
0.922042
0.906415
0.904197
0.873824
0.878006
0.910695
0.9117
0.487938
0.484945
0.907338
0.895659
0.92294
0.922742
0.338382
0.342879
0.541132
0.422532
0.197201
0.194305
0.955315
0.898158
0.930334
0.930703
0.970138
0.97012
0.970977
0.970628
0.974151
0.96215
0.952976
0.950675
0.946074
0.952686
0.914395
0.821765
0.940698
0.941915
0.901569
0.870587
0.856732
0.851652
1.01192
0.952215
0.930191
0.941149
0.947057
0.971289
0.960214
0.9589
0.959257
0.968893
0.965874
0.971332
0.971156
0.969995
0.967232
0.956852
0.951775
0.955327
0.956184
0.864654
0.906109
0.83666
1.03717
0.8962
0.913097
0.879461
0.753597
0.970298
0.949626
0.949193
0.88106
0.87233
0.978925
1.022
0.942706
0.94618
0.925943
0.910934
0.976966
0.975292
0.945395
0.917729
0.96694
0.960576
0.970027
0.957553
0.948473
0.949631
0.947512
0.974266
0.974158
0.976915
0.975799
0.976898
0.976955
0.955276
0.96716
0.976715
0.974427
0.971136
0.969431
0.96974
0.969897
0.916122
0.90816
0.869787
0.877798
0.83926
0.837477
0.861323
0.855608
0.944543
0.946858
0.95418
0.959157
0.947145
0.951076
0.946033
0.943411
0.939909
0.942786
0.929665
0.917971
0.902713
0.886645
0.946354
0.950007
0.97476
0.973136
0.967208
0.963645
0.968686
0.965878
0.953938
0.94989
0.977203
0.973356
0.968386
0.97107
0.978445
0.9728
0.97044
0.977952
0.977893
0.966936
0.968752
0.975654
0.975235
0.975755
0.975927
0.952078
0.950846
0.375492
0.427759
0.411933
0.410089
0.945803
0.947378
0.945799
0.944872
0.940271
0.941224
0.947711
0.948444
0.920295
0.919541
0.880474
0.867189
0.926873
0.923788
0.900107
0.901306
0.924156
0.925251
0.923796
0.924916
0.902237
0.90068
0.749563
0.753861
0.699798
0.706532
0.59639
0.590081
0.0620541
0.055772
0.690043
0.679244
0.859223
0.855075
0.0542653
0.0626589
0.0882337
0.907912
0.904659
0.917242
0.904837
0.962107
0.981033
0.980951
0.929418
0.965812
0.895341
0.90037
0.946326
0.949284
0.929504
0.938528
0.857024
0.833164
0.838845
0.86144
0.963662
0.962853
0.85683
0.854052
0.906117
0.906919
0.888644
0.882498
0.683993
0.61143
0.96211
0.962532
0.944043
0.944725
0.931532
0.931477
0.922507
0.922219
0.768489
0.767843
0.667431
0.773803
0.702075
0.76524
0.760489
0.939009
0.93798
0.954681
0.832235
0.976617
0.97614
0.965025
0.963184
0.969852
0.970467
0.970133
0.969046
0.961157
0.97204
0.948384
0.960058
0.945494
0.941411
0.845329
0.881887
0.940393
0.941238
0.851478
0.886551
0.867393
0.921328
0.930552
0.952878
0.821415
0.943419
0.965962
0.963338
0.969545
0.970046
0.96947
0.966547
0.97096
0.970787
0.931353
0.946899
0.95112
0.950992
0.941605
0.940987
0.885391
0.870474
0.84199
0.929018
0.984708
0.805201
0.917921
0.928984
0.886897
0.894346
0.885019
0.918533
0.883089
0.868035
0.869315
0.886885
0.855494
0.859207
0.95621
0.948729
0.930036
0.927892
0.961322
0.968822
0.973018
0.973545
0.96422
0.959091
0.957589
0.974595
0.974424
0.969713
0.972978
0.965644
0.972223
0.970759
0.969087
0.969519
0.975439
0.873258
0.880487
0.854534
0.848367
0.84476
0.843846
0.864743
0.870063
0.860974
0.950724
0.955789
0.962682
0.958541
0.942444
0.944401
0.942016
0.937678
0.908674
0.925179
0.971336
0.970939
0.968527
0.965434
0.973139
0.970202
0.971101
0.968209
0.964542
0.968333
0.976438
0.974339
0.971946
0.970009
0.97254
0.968916
0.970626
0.974171
0.975264
0.972064
0.975409
0.966723
0.968503
0.976688
0.97742
0.974106
0.974996
0.816025
0.751846
0.370785
0.4234
0.749085
0.815769
0.736786
0.815722
0.94977
0.950475
0.944852
0.945716
0.941094
0.94199
0.946555
0.945709
0.932036
0.931354
0.837243
0.862096
0.878517
0.864875
0.930008
0.927096
0.898222
0.896646
0.869612
0.853581
0.920702
0.919476
0.921098
0.922263
0.928958
0.929961
0.917883
0.916611
0.920342
0.921652
0.902979
0.904487
0.905651
0.899953
0.742941
0.777768
0.485723
0.493302
0.0952798
0.0877593
0.760162
0.765722
0.82222
0.81988
0.853715
0.856036
0.826025
0.833233
0.858575
0.863249
0.964864
0.960083
0.953757
0.885685
0.876052
0.916318
0.898435
0.85862
0.827679
0.962077
0.961384
0.955675
0.956658
0.88589
0.894135
0.905749
0.912315
0.927252
0.91298
0.85576
0.91988
0.857401
0.922237
0.963329
0.963673
0.960667
0.962017
0.554105
0.545364
0.910603
0.906364
0.905269
0.904547
0.903793
0.898942
0.732086
0.767684
0.824089
0.795948
0.968011
0.968896
0.948886
0.952877
0.945011
0.949136
0.966863
0.967483
0.941825
0.941233
0.917394
0.917553
0.840954
0.843032
0.365108
0.384927
0.800805
0.801797
0.70051
0.870139
0.930686
0.933652
0.969073
0.967468
0.969218
0.96954
0.971837
0.97143
0.972638
0.961306
0.942851
0.934496
0.952553
0.967517
0.860124
0.848624
0.864315
0.853146
0.840659
0.941647
0.939033
0.892556
0.913452
1.08183
0.885342
0.860676
0.878871
0.82527
0.944611
0.951971
0.967032
0.966582
0.971413
0.957888
0.968024
0.969977
0.970403
0.969886
0.970481
0.97058
0.938919
0.917591
0.932093
0.916338
0.909932
0.899045
0.864313
0.874999
0.880869
0.832128
0.893852
0.795961
0.930897
0.951376
0.950027
0.937373
0.941472
0.900175
0.911077
0.862322
0.894093
0.885133
0.843877
0.921901
0.97578
0.975587
0.94703
0.955306
0.974278
0.969039
0.974018
0.973878
0.976274
0.9764
0.939704
0.937393
0.956537
0.954649
0.977207
0.975987
0.972457
0.969793
0.974731
0.976879
0.898588
0.905968
0.864794
0.873146
0.858638
0.86588
0.828491
0.79941
0.872257
0.881837
0.861904
0.867012
0.948134
0.945212
0.955795
0.96054
0.927774
0.937414
0.96977
0.970328
0.973487
0.971733
0.968909
0.971939
0.963151
0.957543
0.972311
0.97185
0.975689
0.97488
0.970243
0.972723
0.968731
0.972035
0.973898
0.970535
0.972114
0.97053
0.968022
0.96901
0.966526
0.968297
0.975868
0.975854
0.756023
0.818685
0.752311
0.815589
0.815868
0.81584
0.81054
0.808302
0.920923
0.927487
0.95664
0.958304
0.946565
0.946718
0.94393
0.942972
0.942159
0.941998
0.949757
0.950506
0.936222
0.937159
0.900855
0.900491
0.862785
0.837877
0.931384
0.930276
0.924004
0.922961
0.920322
0.919113
0.929976
0.84377
0.846525
0.849143
0.851528
0.881643
0.923862
0.922764
0.915487
0.916719
0.926329
0.929098
0.911454
0.909625
0.90821
0.90676
0.919301
0.92046
0.922774
0.923966
0.906273
0.90773
0.816179
0.818928
0.909079
0.913213
0.763409
0.758462
0.645387
0.637549
0.50092
0.602814
0.109268
0.104399
0.180262
0.170339
0.513564
0.505689
0.840982
0.838974
0.902981
0.905722
0.860028
0.867418
0.827128
0.819609
0.847092
0.838408
0.826285
0.835577
0.158848
0.0569906
0.92635
0.927568
0.905359
0.900244
0.865367
0.893811
0.91728
0.853422
0.901931
0.871102
0.912277
0.969698
0.9735
0.96691
0.966827
0.884241
0.893648
0.870053
0.908598
0.901412
0.907561
0.898769
1.03899
0.854721
0.914272
0.851449
0.879321
1.02603
0.936377
0.908089
0.915192
0.961492
0.962295
0.86517
0.871145
0.815017
0.80921
0.851432
0.851054
0.815565
0.841975
0.903593
0.902943
0.736601
0.77415
0.792172
0.820786
0.965854
0.966145
0.968387
0.969045
0.953275
0.949284
0.387415
0.391319
0.453289
0.393149
0.876363
0.846004
0.940586
0.939878
0.92723
0.927053
0.850118
0.850025
0.87014
0.872225
0.347608
0.355065
0.773378
0.77378
0.942422
0.945593
0.950465
0.917192
0.971332
0.972204
0.970918
0.972138
0.969091
0.970313
0.973184
0.961472
0.946453
0.944942
0.957917
0.96622
0.848549
0.875439
0.868295
0.920433
0.913364
0.936249
0.942111
0.92255
0.934668
0.859315
0.874664
0.954175
0.954018
0.970842
0.978296
0.969991
0.969502
0.970051
0.970592
0.972246
0.973771
0.970976
0.962569
0.924533
0.932291
0.908047
0.92812
0.896536
0.923034
0.923447
0.934356
0.927058
0.903021
0.895022
0.911896
0.89568
0.943676
0.926149
0.832215
0.827131
0.942972
0.950886
0.943538
0.903348
0.9191
0.882272
0.86747
0.878802
0.877769
0.871506
1.00738
0.83682
0.884412
0.848488
0.976491
0.975656
0.973909
0.974485
0.969881
0.969404
0.974653
0.976355
0.978429
0.973988
0.97415
0.966888
0.977063
0.943256
0.941376
0.965383
0.967559
0.976435
0.977086
0.911167
0.917543
0.887445
0.87438
0.881755
0.890399
0.848489
0.849167
0.865311
0.837077
0.861103
0.789731
0.842005
0.88376
0.869099
0.863683
0.949575
0.946085
0.970496
0.970048
0.971388
0.973847
0.967906
0.964622
0.967553
0.970247
0.964475
0.959428
0.972674
0.972157
0.968228
0.970645
0.96859
0.971554
0.972285
0.97064
0.968402
0.969462
0.949057
0.949427
0.866253
0.840782
0.854666
0.851908
0.526747
0.511472
0.496605
0.507888
0.673787
0.688484
0.935682
0.931117
0.948529
0.947737
0.953713
0.951904
0.954966
0.955797
0.94539
0.946196
0.944385
0.94512
0.943075
0.943973
0.942868
0.950927
0.951747
0.948987
0.938974
0.937933
0.933607
0.932488
0.322803
0.317897
0.925207
0.926213
0.931384
0.933839
0.42762
0.393857
0.910608
0.917722
0.933561
0.934629
0.93492
0.933974
0.921563
0.920412
0.91653
0.915126
0.884631
0.882689
0.868584
0.881955
0.902599
0.91009
0.918695
0.917397
0.928072
0.927037
0.915255
0.913769
0.908842
0.911968
0.921496
0.920341
0.919057
0.921572
0.905277
0.903769
0.901766
0.903293
0.892875
0.891355
0.87321
0.87517
0.910398
0.90588
0.902936
0.875218
0.873164
0.810255
0.814657
0.564814
0.575571
0.393906
0.384687
0.138822
0.146281
0.125598
0.131941
0.0698155
0.0739925
0.356575
0.185526
0.660034
0.666606
0.640516
0.628888
0.881962
0.883713
0.872465
0.877313
0.841785
0.834896
0.88734
0.885413
0.841649
0.832573
0.830216
0.82286
0.790204
0.800105
0.79737
0.801943
0.0513091
0.0565363
0.885978
0.871617
0.918197
0.915584
0.898081
0.891629
0.903988
0.900097
0.882426
0.917836
0.842064
0.912602
0.94815
0.950211
0.962138
0.961891
0.966773
0.962425
0.957507
0.962041
0.894855
0.889566
0.946223
0.950509
0.911053
0.919696
0.89315
0.906894
0.915419
0.90885
0.897176
0.899775
0.943741
0.894648
0.890818
0.874087
0.554168
0.58667
0.959102
0.957968
0.935422
0.935928
0.895565
0.895479
0.804581
0.807979
0.816928
0.811204
0.846164
0.848633
0.635874
0.441012
0.839208
0.812322
0.905538
0.900842
0.894599
0.888961
0.77124
0.805829
0.61258
0.606743
0.810189
0.780209
0.757763
0.752417
0.966566
0.966483
0.96957
0.970032
0.962095
0.961779
0.957214
0.956627
0.409173
0.412703
0.408136
0.8477
0.877355
0.966158
0.965756
0.931331
0.931453
0.93141
0.931298
0.897546
0.897464
0.329031
0.330497
0.896887
0.900113
0.804936
0.805947
0.689675
0.678522
0.772041
0.622636
0.953656
0.957328
0.948035
0.929778
0.969943
0.96954
0.974715
0.974776
0.969256
0.970318
0.974841
0.962792
0.944618
0.947094
0.877671
0.761753
0.836906
0.937633
0.930005
0.952469
0.969703
0.970207
0.97592
0.953044
0.955275
0.910293
0.909085
0.844657
0.95037
0.969721
0.917637
0.915778
0.906778
0.896693
0.931758
0.870059
0.905399
0.84992
0.766844
0.939519
0.947559
0.893921
0.883116
0.876622
0.889147
0.873684
0.9157
0.916861
0.936388
0.896919
0.952132
0.961387
0.964738
0.936512
0.923338
0.969117
0.974177
0.976317
0.977804
0.969544
0.97481
0.978434
0.975383
0.968682
0.977148
0.97373
0.973399
0.951065
0.952946
0.903563
0.913109
0.930936
0.933898
0.92254
0.912262
0.900276
0.861897
0.854457
0.842899
0.838476
0.64778
0.721387
0.853638
0.878592
0.868353
0.851837
0.975144
0.974984
0.970729
0.970343
0.969068
0.966102
0.966787
0.969372
0.968044
0.970272
0.978347
0.976822
0.90053
0.899388
0.956096
0.957248
0.927352
0.928394
0.93562
0.936612
0.905359
0.904042
0.408898
0.483261
0.578358
0.560053
0.741389
0.745419
0.518414
0.852987
0.855802
0.933329
0.937745
0.926687
0.925496
0.907971
0.909251
0.946374
0.947078
0.957528
0.955851
0.950642
0.952683
0.947404
0.948235
0.94699
0.944059
0.945827
0.943728
0.944568
0.950787
0.951629
0.944528
0.946958
0.935893
0.936816
0.933119
0.934188
0.747356
0.74551
0.923511
0.922565
0.91176
0.910791
0.927296
0.864665
0.839527
0.890551
0.888871
0.936225
0.933745
0.927681
0.921815
0.925199
0.92421
0.937417
0.935601
0.922288
0.92346
0.917802
0.916469
0.918725
0.832804
0.835538
0.864248
0.861692
0.908815
0.907555
0.907982
0.909821
0.919904
0.914232
0.928634
0.929621
0.912713
0.911019
0.914177
0.919098
0.917865
0.923738
0.924822
0.922655
0.905969
0.907426
0.910351
0.911737
0.904796
0.844188
0.816556
0.860312
0.862471
0.893166
0.883913
0.89932
0.901231
0.787975
0.78446
0.282836
0.151116
0.585756
0.495983
0.519474
0.645195
0.653258
0.630152
0.622952
0.508605
0.516453
0.153289
0.324921
0.0860355
0.0894222
0.191852
0.197812
0.0655533
0.0994093
0.531869
0.527332
0.600556
0.607784
0.775946
0.770079
0.897299
0.895735
0.908566
0.90716
0.855257
0.863818
0.847547
0.854564
0.883956
0.886034
0.864924
0.857308
0.865368
0.87281
0.714436
0.718519
0.823978
0.816268
0.86099
0.865712
0.811369
0.82287
0.647795
0.654251
0.0714052
0.211633
0.134744
0.953829
0.954768
0.987866
0.988032
0.925722
0.93525
0.934789
0.919237
0.851946
0.907923
0.913437
0.903213
0.783026
0.735396
0.961638
0.960821
0.973184
0.968711
0.963157
0.963559
0.981322
0.974283
0.962297
0.96263
0.958825
0.954769
0.875111
0.923548
0.932636
0.94091
0.947968
0.952705
0.891522
0.897064
0.903403
0.93708
0.925794
0.916344
0.929574
0.926608
0.912285
0.88299
0.879929
0.987449
0.975595
0.977358
0.853547
0.877778
0.895718
0.965198
0.964444
0.945779
0.950876
0.931997
0.927624
0.83266
0.800789
0.843765
0.846859
0.828056
0.830978
0.812609
0.80673
0.833789
0.830895
0.84905
0.84662
0.915597
0.919336
0.836418
0.80902
0.875753
0.857557
0.907251
0.902707
0.895987
0.889821
0.890665
0.884694
0.831961
0.821063
0.61681
0.614857
0.136276
0.133806
0.697613
0.618466
0.688757
0.610597
0.575233
0.563125
0.698962
0.687515
0.966588
0.96664
0.969545
0.969198
0.962226
0.962615
0.956346
0.956904
0.93576
0.940208
0.919049
0.912605
0.896354
0.907935
0.959628
0.958995
0.928982
0.927937
0.935712
0.935729
0.927342
0.927446
0.878721
0.878723
0.332308
0.335276
0.852838
0.84704
0.89117
0.892879
0.802755
0.803802
0.671453
0.664512
0.945705
0.946781
0.947075
0.953354
0.958821
0.945744
0.944466
0.970913
0.970596
0.972196
0.877292
0.950555
0.947677
0.974837
0.963938
0.974145
0.946979
0.939225
0.951866
0.941115
0.899394
0.877451
0.975195
0.911334
0.864646
0.827474
0.761638
0.865873
0.865077
0.855113
0.941346
0.947743
0.870196
0.867467
0.867442
0.874535
0.900981
0.849045
0.937775
0.875042
0.847646
0.960092
0.966063
0.939681
0.927311
0.968973
0.974202
0.977873
0.977952
0.977893
0.973656
0.969174
0.974362
0.977355
0.972231
0.903508
0.894662
0.93583
0.930424
0.893319
0.885731
0.856681
0.848408
0.836443
0.837779
0.892805
0.974333
0.975172
0.971643
0.971231
0.970797
0.973502
0.970407
0.973242
0.914811
0.913365
0.96512
0.968174
0.955388
0.955079
0.935378
0.9357
0.849865
0.826266
0.951199
0.951818
0.842245
0.842132
0.947667
0.948185
0.884498
0.88406
0.757725
0.814951
0.547237
0.556061
0.414762
0.542957
0.528469
0.537983
0.821229
0.82452
0.93441
0.938752
0.932232
0.936722
0.900808
0.902346
0.937095
0.937878
0.942041
0.942772
0.954318
0.955073
0.953698
0.953178
0.958815
0.958498
0.947788
0.948976
0.948529
0.947627
0.943262
0.942444
0.950095
0.949938
0.940751
0.941607
0.934303
0.933319
0.934364
0.93537
0.439914
0.430938
0.786266
0.784541
0.91872
0.917843
0.930511
0.93297
0.933773
0.936315
0.839019
0.864071
0.803431
0.79815
0.891667
0.880478
0.934773
0.937222
0.924286
0.929988
0.942164
0.940285
0.933922
0.932971
0.933631
0.93544
0.924901
0.927927
0.924619
0.922792
0.921559
0.924761
0.919067
0.917798
0.911627
0.913082
0.854296
0.851896
0.877684
0.875297
0.860228
0.874632
0.925995
0.924936
0.916008
0.914542
0.92486
0.925904
0.930423
0.931425
0.913984
0.912402
0.915204
0.913882
0.922705
0.923793
0.914449
0.915792
0.909169
0.910592
0.913102
0.908722
0.881861
0.88025
0.85304
0.851809
0.871225
0.858199
0.888784
0.880004
0.907544
0.911838
0.871576
0.86943
0.832534
0.829226
0.696194
0.707621
0.812731
0.817017
0.736623
0.772385
0.627109
0.636531
0.110696
0.116027
0.524409
0.532976
0.332855
0.340594
0.316642
0.307968
0.537772
0.524867
0.365066
0.373009
0.679484
0.68604
0.708086
0.714161
0.751291
0.741329
0.76922
0.759192
0.909296
0.908351
0.898983
0.900451
0.904502
0.905978
0.870224
0.875253
0.856425
0.852575
0.878183
0.880469
0.862439
0.854655
0.879313
0.881422
0.86057
0.862987
0.879149
0.883434
0.83551
0.84438
0.841223
0.849305
0.818739
0.807229
0.796691
0.801347
0.557758
0.415654
0.615231
0.665988
0.218386
0.955395
0.950176
0.751382
0.700148
0.965747
0.967988
0.859087
0.838136
0.947941
0.921865
0.923864
0.936998
0.955246
0.963349
0.962735
0.943604
0.894614
0.887433
0.876904
0.911701
0.896036
0.900917
0.960632
0.962827
0.960534
0.955814
0.963888
0.964744
0.983342
0.983937
0.973863
0.987637
0.966668
0.962839
0.971827
0.976139
0.909898
0.941707
0.956902
0.958468
0.861503
0.928225
0.946324
0.9422
0.941418
0.956678
0.904778
0.912696
0.917155
0.935165
0.930532
0.929251
0.927729
0.920494
0.889217
0.915445
0.866417
0.798571
0.923363
1.01254
1.10476
0.97122
0.971066
0.854183
0.85371
0.899921
0.895731
0.96332
0.960005
0.964156
0.965085
0.958043
0.959352
0.67473
0.659702
0.955005
0.952509
0.835387
0.837971
0.891745
0.893286
0.860925
0.863071
0.678111
0.671118
0.661664
0.668099
0.817785
0.819651
0.827917
0.824853
0.883235
0.884939
0.757454
0.796472
0.888324
0.870357
0.911338
0.915093
0.715153
0.731776
0.775754
0.780423
0.910133
0.909193
0.908942
0.904553
0.86304
0.842396
0.891515
0.897624
0.892655
0.886851
0.873053
0.865561
0.751101
0.787641
0.488434
0.488014
0.868572
0.863427
0.70271
0.624242
0.692778
0.613677
0.732895
0.830202
0.82677
0.704749
0.693663
0.967394
0.966836
0.955291
0.957025
0.96137
0.961789
0.957237
0.957923
0.946298
0.945722
0.944728
0.94877
0.944864
0.948873
0.930442
0.924924
0.893755
0.905895
0.512534
0.36199
0.805047
0.752273
0.95535
0.954853
0.924154
0.921808
0.947313
0.947662
0.923224
0.92318
0.931514
0.93154
0.909416
0.909173
0.761186
0.758993
0.766112
0.765259
0.660374
0.655189
0.88358
0.879713
0.864806
0.867704
0.769155
0.770144
0.412134
0.541447
0.848071
0.941706
0.932049
0.95792
0.959676
0.971236
0.972025
0.970033
0.970582
0.96586
0.897387
0.904531
0.905972
0.928242
0.938347
0.885255
0.541085
0.652972
0.843374
0.864255
0.887466
0.876405
0.932657
0.920938
0.934611
0.940701
0.858884
0.905981
0.975383
0.971721
0.949364
0.955288
0.948693
0.949325
0.978243
0.977247
0.969437
0.974158
0.974468
0.978207
0.898941
0.888529
0.927023
0.922284
0.847226
0.851658
0.973665
0.975002
0.923005
0.923822
0.964119
0.963474
0.967162
0.967618
0.949918
0.950572
0.949871
0.950322
0.927978
0.930205
0.320778
0.404265
0.575535
0.568371
0.939921
0.939061
0.952425
0.936179
0.933874
0.866709
0.841106
0.883389
0.882832
0.928611
0.928807
0.885258
0.897714
0.866584
0.837606
0.759922
0.814517
0.755188
0.815316
0.418717
0.424054
0.858373
0.855454
0.907574
0.908783
0.935473
0.939744
0.92786
0.906202
0.904756
0.910304
0.908942
0.931574
0.932432
0.940103
0.940672
0.955828
0.953849
0.952372
0.953158
0.955638
0.954893
0.955184
0.955796
0.947749
0.948347
0.947775
0.94855
0.944811
0.944592
0.948202
0.949075
0.945391
0.946183
0.940355
0.9412
0.93925
0.940181
0.935801
0.934711
0.938618
0.939495
0.933343
0.473763
0.480564
0.611863
0.611704
0.743737
0.74193
0.916324
0.908148
0.910479
0.929573
0.932071
0.933002
0.935507
0.909193
0.896682
0.82757
0.852108
0.765743
0.812045
0.849112
0.869903
0.8987
0.897118
0.916411
0.909221
0.926506
0.920555
0.928843
0.92306
0.927543
0.926659
0.932923
0.931968
0.934621
0.936434
0.926004
0.928974
0.921695
0.927937
0.928957
0.919916
0.921104
0.911848
0.9105
0.868764
0.86667
0.894326
0.892595
0.905041
0.902427
0.872811
0.857953
0.891911
0.893155
0.921893
0.923044
0.926933
0.927948
0.927657
0.929423
0.920291
0.921761
0.923668
0.917782
0.916502
0.916897
0.918112
0.922629
0.921595
0.91715
0.918565
0.907297
0.905846
0.814343
0.84256
0.867397
0.866888
0.821745
0.824523
0.885953
0.878922
0.877312
0.897108
0.885777
0.894985
0.872948
0.870971
0.895321
0.897
0.851481
0.85394
0.867918
0.871828
0.79182
0.787715
0.790395
0.790821
0.797729
0.831086
0.834704
0.803069
0.807427
0.729793
0.766588
0.55355
0.541971
0.54251
0.555329
0.347762
0.355203
0.159657
0.165442
0.442043
0.449589
0.257764
0.433757
0.796688
0.801501
0.726143
0.732275
0.614723
0.520917
0.578933
0.566082
0.726295
0.716031
0.765142
0.755258
0.849501
0.865325
0.893177
0.891505
0.917071
0.918945
0.866326
0.85803
0.865869
0.85908
0.851361
0.897989
0.896322
0.859973
0.85205
0.891065
0.889226
0.87057
0.868293
0.850509
0.852174
0.84551
0.853954
0.830462
0.818668
0.79585
0.785783
0.782445
0.793946
0.667729
0.661586
0.650502
0.701484
0.626029
0.675187
0.470526
0.478507
0.956335
0.967689
0.969228
0.828514
0.806145
0.959879
0.954067
0.956267
0.962952
0.936783
0.923495
0.93286
0.928844
0.704022
0.848367
0.851259
0.843709
0.898099
0.906122
0.936001
0.936009
0.972861
0.975964
0.953831
0.952497
0.971415
0.971547
0.950529
0.9525
0.962532
0.96481
0.961065
0.962278
0.975443
0.975751
0.980781
0.980519
0.982878
0.973652
0.98705
0.981251
0.975729
0.967795
0.968076
0.969078
0.960171
0.945836
0.964094
0.950413
0.958224
0.95862
0.956015
0.901943
0.901732
0.824758
0.813071
0.925205
0.917448
0.941703
0.953844
0.954822
0.941517
0.943334
0.895434
0.905581
0.940585
0.937387
0.900455
0.91039
0.888645
0.813139
0.444253
0.568441
1.10101
0.941623
0.943865
0.910381
0.893998
0.852057
0.855176
0.903097
0.926094
0.912945
0.966784
0.963958
0.961836
0.959654
0.963219
0.896497
0.894853
0.462331
0.46909
0.952195
0.954632
0.932055
0.933097
0.904847
0.903337
0.894809
0.890956
0.869959
0.868011
0.869194
0.867201
0.779817
0.783642
0.627384
0.619724
0.80062
0.794343
0.799395
0.803029
0.815446
0.818734
0.867502
0.865104
0.879695
0.877866
0.877139
0.875295
0.675958
0.645871
0.451239
0.858513
0.878396
0.920612
0.912232
0.908144
0.327366
0.333516
0.770999
0.90854
0.907666
0.894312
0.888079
0.894731
0.894512
0.802659
0.767299
0.854451
0.845381
0.815173
0.823671
0.684991
0.689141
0.14053
0.288313
0.311598
0.290871
0.87643
0.88114
0.747074
0.751519
0.73812
0.742577
0.80143
0.793977
0.735128
0.740857
0.966649
0.966117
0.966339
0.966526
0.825292
0.799757
0.957452
0.955701
0.961779
0.962104
0.962172
0.962556
0.955005
0.954305
0.950385
0.949808
0.944665
0.948715
0.944841
0.948861
0.925572
0.930634
0.913328
0.919548
0.869397
0.834699
0.484283
0.376764
0.560356
0.3415
0.596456
0.331443
0.96938
0.969352
0.967218
0.967081
0.95893
0.958901
0.942558
0.943326
0.943573
0.943233
0.917487
0.91721
0.927503
0.927527
0.909188
0.909459
0.878074
0.878507
0.808447
0.807746
0.806919
0.807673
0.650676
0.644761
0.887832
0.892983
0.902531
0.904526
0.838627
0.836041
0.359784
0.710403
0.768263
0.628395
0.865477
0.879239
0.952679
0.95461
0.926946
0.930891
0.972659
0.973038
0.965603
0.973998
0.97715
0.971951
0.970513
0.904986
0.887575
0.938239
0.939046
0.930853
0.947912
0.507845
0.799411
0.794637
0.728063
0.875631
0.869063
0.847586
0.847886
0.877039
0.9564
0.964757
0.976764
0.976111
0.951663
0.977938
0.978034
0.885373
0.87622
0.929371
0.929371
0.960568
0.959625
0.967193
0.96764
0.947801
0.948521
0.9544
0.954754
0.936317
0.936575
0.907864
0.90635
0.320572
0.383069
0.517952
0.807479
0.737608
0.36083
0.417516
0.941099
0.940266
0.936522
0.935566
0.951502
0.952282
0.867132
0.841392
0.883929
0.935988
0.935433
0.950095
0.950532
0.887055
0.894442
0.89936
0.838733
0.867465
0.572558
0.580223
0.470351
0.409362
0.564472
0.701028
0.812304
0.861344
0.870556
0.873531
0.947596
0.949125
0.929015
0.93015
0.907622
0.913024
0.911715
0.925368
0.924321
0.936336
0.930732
0.948445
0.948354
0.945709
0.941339
0.952537
0.951364
0.950514
0.949824
0.949151
0.954113
0.954099
0.954487
0.9566
0.957342
0.947059
0.94633
0.943754
0.941271
0.949248
0.948386
0.943742
0.942935
0.942836
0.943623
0.938303
0.935242
0.936281
0.935269
0.937725
0.799826
0.801222
0.815992
0.81248
0.408532
0.407457
0.787979
0.789685
0.910374
0.909598
0.853041
0.852436
0.928561
0.931129
0.926402
0.925366
0.937374
0.940131
0.895543
0.908095
0.881642
0.882247
0.640763
0.470436
0.767477
0.809555
0.413987
0.436229
0.602936
0.747675
0.930607
0.933191
0.907812
0.915082
0.889885
0.878351
0.88461
0.895121
0.935788
0.938212
0.925318
0.919281
0.942003
0.94295
0.928689
0.927857
0.930621
0.932428
0.936968
0.937896
0.937134
0.938123
0.932
0.932996
0.925818
0.922674
0.919359
0.918189
0.905943
0.904486
0.849516
0.830071
0.838264
0.841019
0.891193
0.898921
0.900168
0.891652
0.871104
0.85572
0.885563
0.894494
0.926296
0.92514
0.928932
0.927931
0.931124
0.932127
0.92504
0.925962
0.91526
0.916389
0.924135
0.921054
0.919131
0.920358
0.91916
0.917953
0.911528
0.910128
0.911438
0.912745
0.726048
0.738474
0.768082
0.839943
0.837746
0.827324
0.847121
0.901766
0.907232
0.893457
0.891211