/*--------------------------------*- C++ -*----------------------------------*\
  =========                 |
  \\      /  F ield         | OpenFOAM: The Open Source CFD Toolbox
   \\    /   O peration     | Website:  https://openfoam.org
    \\  /    A nd           | Version:  7
     \\/     M anipulation  |
\*---------------------------------------------------------------------------*/
FoamFile
{
    version     2.0;
    format      ascii;
    class       volScalarField;
    location    "60";
    object      T;
}
// * * * * * * * * * * * * * * * * * * * * * * * * * * * * * * * * * * * * * //

dimensions      [0 0 0 1 0 0 0];

internalField   nonuniform List<scalar> 
238806
(
-7.23274e-12
-7.31244e-12
-4.98448e-12
-5.07243e-12
-4.90436e-12
-4.24856e-12
-4.23849e-12
-7.24243e-12
-7.16633e-12
-5.1272e-12
-5.1865e-12
-4.75954e-12
-9.22002e-12
-9.24406e-12
-6.30817e-12
-6.13295e-12
-5.22369e-12
-5.29826e-12
-6.54372e-12
-6.54191e-12
-8.94161e-12
-9.00235e-12
-6.14619e-12
-6.19444e-12
-6.30195e-12
-5.1012e-12
-5.19801e-12
-5.22447e-12
-8.49293e-12
-8.45997e-12
-6.59905e-12
-6.54996e-12
-8.79116e-12
-8.69325e-12
-8.68375e-12
-8.57591e-12
-3.05899e-14
-2.97029e-14
-5.03756e-12
-4.96954e-12
-5.07855e-12
-5.22936e-12
-3.43495e-12
-3.38965e-12
-6.59636e-12
-6.60288e-12
-9.17899e-12
-9.07656e-12
-8.59302e-12
-8.49073e-12
-7.98476e-12
-7.9478e-12
-9.13452e-12
-9.1613e-12
-3.12487e-13
-3.02889e-13
-5.06334e-12
-4.97057e-12
-4.97643e-12
-4.79173e-12
-4.87336e-12
-4.9277e-12
-5.00509e-12
-5.0434e-12
-4.93888e-12
-6.65145e-12
-6.65331e-12
-7.09522e-12
-7.15885e-12
-7.5452e-12
-7.62741e-12
-8.83473e-12
-8.92693e-12
-8.57137e-12
-8.66667e-12
-8.23703e-12
-8.28863e-12
-8.6879e-12
-8.58079e-12
-6.56563e-12
-6.56423e-12
-8.08455e-12
-8.01725e-12
-3.87562e-12
-3.8428e-12
-4.61371e-12
-4.71809e-12
-5.48007e-12
-5.40028e-12
-5.32255e-12
-5.39511e-12
-4.69199e-12
-4.78767e-12
-3.51317e-12
-3.5459e-12
-5.05341e-12
-4.94464e-12
-8.12306e-12
-8.22703e-12
-8.32316e-12
-6.66416e-12
-7.06144e-12
-7.1089e-12
-7.14836e-12
-7.1374e-12
-9.54271e-12
-9.58988e-12
-8.73575e-12
-8.82097e-12
-8.76268e-12
-8.85814e-12
-8.23234e-12
-8.16703e-12
-8.05482e-12
-8.08939e-12
-9.2004e-12
-9.1128e-12
-3.67337e-14
-3.70536e-14
-3.60372e-14
-8.34086e-12
-8.36215e-12
-4.00509e-12
-4.04164e-12
-4.16616e-12
-4.15631e-12
-6.46281e-12
-6.48151e-12
-5.63335e-12
-5.59134e-12
-4.88225e-12
-5.41965e-12
-5.48976e-12
-5.40797e-12
-4.69091e-12
-4.58902e-12
-3.5511e-12
-3.48958e-12
-6.14851e-12
-6.26793e-12
-6.21128e-12
-6.1421e-12
-8.01684e-12
-6.83031e-12
-6.87564e-12
-6.92517e-12
-6.97198e-12
-7.18329e-12
-7.13527e-12
-7.42226e-12
-7.47856e-12
-7.7865e-12
-7.83579e-12
-9.46531e-12
-9.52432e-12
-8.9848e-12
-9.05644e-12
-8.90827e-12
-8.99656e-12
-9.03031e-12
-9.08719e-12
-8.33968e-12
-8.38806e-12
-7.95061e-12
-7.98327e-12
-8.70312e-12
-8.59584e-12
-7.35945e-12
-7.3674e-12
-3.0254e-14
-2.93726e-14
-8.15834e-12
-8.10258e-12
-8.47346e-12
-8.48922e-12
-8.48603e-12
-3.92328e-12
-3.95827e-12
-4.86989e-12
-4.91135e-12
-6.66512e-12
-6.66375e-12
-5.5775e-12
-5.3835e-12
-5.29058e-12
-5.31932e-12
-3.82671e-12
-3.85062e-12
-3.4511e-12
-3.39188e-12
-3.42273e-12
-3.37418e-12
-4.02311e-12
-4.07862e-12
-8.16796e-12
-8.06626e-12
-8.06004e-12
-8.62135e-12
-8.60687e-12
-8.13962e-12
-8.17426e-12
-6.58212e-12
-6.55801e-12
-6.96475e-12
-7.02854e-12
-7.02695e-12
-7.08656e-12
-7.74086e-12
-7.84167e-12
-7.56315e-12
-7.50857e-12
-9.81855e-12
-9.80032e-12
-9.6308e-12
-9.67999e-12
-9.2937e-12
-9.21522e-12
-8.98108e-12
-8.88697e-12
-8.74301e-12
-8.65309e-12
-8.25525e-12
-8.32272e-12
-8.0991e-12
-8.03711e-12
-8.08365e-12
-8.05521e-12
-8.68874e-12
-8.58078e-12
-9.0791e-12
-9.17536e-12
-3.67473e-12
-3.82798e-12
-3.54267e-12
-3.70037e-12
-5.832e-13
-5.4023e-13
-7.17952e-12
-7.0608e-12
-7.45417e-12
-7.3238e-12
-8.36121e-12
-8.34136e-12
-8.71209e-12
-8.73088e-12
-4.08803e-12
-4.12314e-12
-4.69787e-12
-4.65759e-12
-4.8612e-12
-4.96873e-12
-5.33789e-12
-5.44021e-12
-6.12301e-12
-6.07694e-12
-5.13628e-12
-5.0338e-12
-3.51586e-12
-3.45095e-12
-3.48041e-12
-3.41789e-12
-3.53028e-12
-3.47455e-12
-5.40626e-12
-5.3913e-12
-4.11108e-12
-4.04327e-12
-5.09497e-12
-5.15307e-12
-8.80564e-12
-8.90271e-12
-7.943e-12
-8.66224e-12
-7.68732e-12
-7.76305e-12
-7.62638e-12
-6.62056e-12
-6.6483e-12
-6.80219e-12
-6.849e-12
-7.0388e-12
-6.99157e-12
-7.3178e-12
-7.22022e-12
-7.32228e-12
-7.31301e-12
-7.52608e-12
-7.55633e-12
-9.64393e-12
-9.68522e-12
-9.36926e-12
-9.31757e-12
-9.67882e-12
-9.72346e-12
-9.47806e-12
-9.54183e-12
-9.08483e-12
-9.17225e-12
-8.95247e-12
-9.0459e-12
-8.98232e-12
-9.06622e-12
-9.21847e-12
-9.25203e-12
-8.48749e-12
-8.56735e-12
-8.27068e-12
-8.30024e-12
-8.13606e-12
-8.1918e-12
-9.18551e-12
-9.1758e-12
-8.80688e-12
-8.7935e-12
-8.7996e-12
-8.89414e-12
-7.79389e-12
-7.92312e-12
-8.53466e-12
-8.65329e-12
-6.70998e-12
-6.54973e-12
-6.39815e-12
-6.39999e-12
-2.80385e-12
-2.78972e-12
-5.41835e-13
-5.85119e-13
-3.52222e-14
-8.22723e-12
-8.18464e-12
-8.36651e-12
-8.34972e-12
-1.62955e-13
-1.4819e-13
-7.37039e-12
-7.27256e-12
-8.50643e-12
-8.53178e-12
-4.15462e-12
-4.22869e-12
-4.09145e-12
-4.08061e-12
-4.80394e-12
-4.76287e-12
-5.04389e-12
-5.1417e-12
-5.72892e-12
-5.71607e-12
-5.77283e-12
-5.82807e-12
-4.18212e-12
-4.0618e-12
-3.5461e-12
-3.48243e-12
-3.71575e-12
-3.76828e-12
-3.75369e-12
-3.48366e-12
-3.53641e-12
-5.18034e-12
-5.16424e-12
-4.49945e-12
-4.40445e-12
-4.16606e-12
-4.09889e-12
-5.36076e-12
-5.49498e-12
-6.41137e-12
-7.62754e-12
-7.73098e-12
-8.36782e-12
-8.25977e-12
-8.06193e-12
-7.97372e-12
-7.99291e-12
-8.0533e-12
-7.13215e-12
-7.19483e-12
-6.64421e-12
-6.61289e-12
-6.76937e-12
-6.77733e-12
-6.84699e-12
-6.90573e-12
-6.90392e-12
-6.96433e-12
-8.21637e-12
-8.11812e-12
-7.91897e-12
-7.82241e-12
-7.22506e-12
-7.23955e-12
-7.17631e-12
-7.21221e-12
-7.50172e-12
-7.50771e-12
-7.59824e-12
-7.65131e-12
-7.89609e-12
-7.98852e-12
-9.78248e-12
-9.80344e-12
-9.42789e-12
-9.37795e-12
-9.72504e-12
-9.76532e-12
-9.53035e-12
-9.58913e-12
-9.31457e-12
-9.39296e-12
-9.14015e-12
-9.23263e-12
-9.05647e-12
-9.13582e-12
-9.16559e-12
-9.13383e-12
-8.57815e-12
-8.65441e-12
-8.19443e-12
-8.16245e-12
-8.55355e-12
-8.44312e-12
-8.89372e-12
-8.79242e-12
-8.90711e-12
-8.89482e-12
-8.70317e-12
-8.32671e-12
-8.42325e-12
-9.101e-12
-9.19639e-12
-8.18398e-12
-8.05107e-12
-7.91919e-12
-8.06179e-12
-3.82313e-12
-3.66879e-12
-4.18045e-12
-4.32161e-12
-3.06119e-12
-2.92411e-12
-1.34585e-13
-1.34007e-13
-2.759e-12
-2.88401e-12
-7.80222e-12
-7.74372e-12
-7.82997e-12
-8.46967e-12
-8.48834e-12
-8.36662e-12
-8.36818e-12
-8.37065e-12
-8.3697e-12
-3.40386e-13
-3.30044e-13
-8.16422e-12
-8.2223e-12
-8.44298e-12
-8.46931e-12
-8.5021e-12
-8.49802e-12
-7.17611e-12
-7.15795e-12
-4.0213e-12
-3.96971e-12
-4.21039e-12
-4.25261e-12
-4.53076e-12
-4.52201e-12
-4.7539e-12
-5.25011e-12
-5.24997e-12
-5.35414e-12
-5.87099e-12
-6.01296e-12
-6.00128e-12
-5.95704e-12
-3.66638e-12
-3.68539e-12
-3.62014e-12
-3.57676e-12
-3.60989e-12
-3.59854e-12
-3.61675e-12
-3.42132e-12
-3.36946e-12
-5.63826e-12
-5.62397e-12
-5.21005e-12
-5.32114e-12
-4.96282e-12
-5.07048e-12
-4.1055e-12
-4.17547e-12
-5.21216e-12
-5.08289e-12
-5.64064e-12
-8.49982e-12
-8.55751e-12
-9.00151e-12
-8.71861e-12
-8.71308e-12
-8.75407e-12
-8.79454e-12
-8.55134e-12
-8.06605e-12
-7.36419e-12
-7.27849e-12
-6.91106e-12
-6.97295e-12
-6.68553e-12
-6.71744e-12
-6.79453e-12
-6.72752e-12
-6.69081e-12
-6.73796e-12
-6.90924e-12
-6.86221e-12
-8.04675e-12
-8.14341e-12
-7.67063e-12
-7.77544e-12
-7.4631e-12
-7.36573e-12
-7.41325e-12
-7.40567e-12
-7.25951e-12
-7.31801e-12
-7.70616e-12
-7.70295e-12
-7.65092e-12
-7.62228e-12
-7.93085e-12
-7.88416e-12
-9.89417e-12
-9.87528e-12
-9.60047e-12
-9.54632e-12
-9.21017e-12
-9.14743e-12
-9.53046e-12
-9.479e-12
-9.63121e-12
-9.58149e-12
-9.46854e-12
-9.40469e-12
-9.58125e-12
-9.63519e-12
-9.37026e-12
-9.44391e-12
-9.19973e-12
-9.28701e-12
-8.97821e-12
-8.90206e-12
-9.13006e-12
-9.20472e-12
-8.92382e-12
-8.90494e-12
-8.97763e-12
-8.92998e-12
-8.66929e-12
-8.74172e-12
-8.39412e-12
-8.30743e-12
-8.59514e-12
-8.6185e-12
-8.03456e-12
-8.02324e-12
-8.34406e-12
-8.42568e-12
-8.50913e-12
-8.60582e-12
-8.78868e-12
-8.89033e-12
-8.98614e-12
-9.07522e-12
-6.32634e-12
-6.18753e-12
-7.93028e-12
-7.80038e-12
-8.56313e-12
-8.68141e-12
-7.2007e-12
-7.20871e-12
-6.5801e-12
-6.74105e-12
-6.01079e-12
-5.85213e-12
-3.95986e-12
-3.95371e-12
-4.0043e-12
-3.97679e-12
-2.93883e-12
-3.07683e-12
-8.63755e-14
-7.83088e-14
-3.19417e-14
-3.10139e-14
-1.40623e-12
-1.40936e-12
-5.05435e-13
-5.04517e-13
-8.20519e-12
-8.32368e-12
-7.18432e-12
-7.20812e-12
-8.43051e-12
-8.43645e-12
-8.21284e-12
-8.26404e-12
-8.2322e-12
-8.16426e-12
-8.37394e-12
-8.36332e-12
-5.01762e-13
-4.87484e-13
-1.58208e-14
-1.5257e-14
-8.77947e-12
-8.77988e-12
-8.6475e-12
-8.67341e-12
-8.65448e-12
-8.63635e-12
-8.51772e-12
-8.53289e-12
-8.51879e-12
-8.47746e-12
-4.23874e-12
-4.30999e-12
-4.00501e-12
-3.91895e-12
-3.89069e-12
-3.81995e-12
-4.26891e-12
-4.18308e-12
-4.43177e-12
-4.42219e-12
-4.80206e-12
-4.69546e-12
-5.00955e-12
-5.13231e-12
-6.85239e-12
-6.83836e-12
-5.5755e-12
-5.6735e-12
-5.6194e-12
-5.82273e-12
-6.03426e-12
-4.43518e-12
-4.4543e-12
-3.79422e-12
-3.83413e-12
-3.58707e-12
-3.64564e-12
-3.67073e-12
-3.68816e-12
-3.43094e-12
-3.37537e-12
-5.75571e-12
-5.74164e-12
-5.04012e-12
-5.14528e-12
-5.29236e-12
-5.27689e-12
-4.24692e-12
-4.17916e-12
-4.03533e-12
-3.96876e-12
-5.56285e-12
-5.69023e-12
-5.66658e-12
-5.21552e-12
-8.29248e-12
-8.35697e-12
-7.89403e-12
-7.80356e-12
-7.77688e-12
-7.82679e-12
-7.91539e-12
-8.32939e-12
-8.4367e-12
-8.88762e-12
-7.88264e-12
-7.20901e-12
-7.28817e-12
-6.68367e-12
-6.72013e-12
-6.71329e-12
-6.70806e-12
-6.79153e-12
-6.84585e-12
-7.99551e-12
-8.01221e-12
-8.08964e-12
-7.94617e-12
-8.01848e-12
-7.45526e-12
-7.36725e-12
-7.33352e-12
-7.4299e-12
-7.27038e-12
-7.17524e-12
-7.29316e-12
-7.25823e-12
-7.3863e-12
-7.47192e-12
-7.84841e-12
-7.8234e-12
-7.60545e-12
-7.60091e-12
-7.71477e-12
-7.80454e-12
-9.73039e-12
-9.69378e-12
-9.80379e-12
-9.82825e-12
-9.76613e-12
-9.75107e-12
-9.60093e-12
-9.56166e-12
-9.27278e-12
-9.20291e-12
-9.28479e-12
-9.22642e-12
-9.46878e-12
-9.41289e-12
-9.63654e-12
-9.68185e-12
-9.41131e-12
-9.34258e-12
-9.42468e-12
-9.49345e-12
-9.25787e-12
-9.34068e-12
-8.8995e-12
-8.81886e-12
-9.07627e-12
-9.04421e-12
-9.11722e-12
-9.17029e-12
-8.44458e-12
-8.50811e-12
-8.39755e-12
-8.48098e-12
-8.4433e-12
-8.48872e-12
-8.24298e-12
-8.25154e-12
-8.37052e-12
-8.28173e-12
-8.29676e-12
-8.51234e-12
-8.39663e-12
-8.9881e-12
-8.99104e-12
-8.75928e-12
-8.65799e-12
-9.04557e-12
-8.95331e-12
-9.7011e-12
-9.64682e-12
-6.3157e-12
-6.30468e-12
-7.54118e-12
-7.39969e-12
-7.52852e-12
-7.52776e-12
-8.78421e-12
-8.67296e-12
-8.08626e-12
-8.21916e-12
-7.93889e-12
-8.08207e-12
-3.81685e-12
-3.66136e-12
-5.23428e-12
-5.23116e-12
-5.16253e-12
-5.14346e-12
-4.46365e-12
-4.61201e-12
-4.46022e-12
-4.61067e-12
-3.56606e-12
-3.71079e-12
-3.34401e-12
-3.20106e-12
-7.44633e-13
-8.00038e-13
-1.21364e-13
-1.3349e-13
-6.4415e-14
-5.84297e-14
-3.12655e-14
-3.03611e-14
-3.3271e-14
-3.22864e-14
-1.32028e-12
-1.32017e-12
-3.69252e-14
-3.82508e-14
-3.71086e-14
-8.43697e-12
-8.39556e-12
-7.17113e-12
-7.25214e-12
-7.33505e-12
-7.01254e-12
-7.13273e-12
-6.62739e-12
-6.51582e-12
-8.42788e-12
-8.44185e-12
-8.41139e-12
-8.39447e-12
-8.31157e-12
-8.27048e-12
-7.76406e-12
-7.81294e-12
-7.86441e-12
-7.81158e-12
-6.46521e-12
-6.30662e-12
-3.92105e-13
-3.60871e-13
-3.93186e-13
-3.81671e-13
-1.82433e-13
-1.76531e-13
-7.72657e-14
-7.4999e-14
-8.5314e-12
-8.4837e-12
-8.04206e-12
-8.1041e-12
-8.59923e-12
-8.63054e-12
-8.697e-12
-8.71809e-12
-8.60314e-12
-8.62493e-12
-8.50338e-12
-8.50681e-12
-8.51784e-12
-8.46846e-12
-8.48762e-12
-4.68453e-12
-4.58964e-12
-4.0617e-12
-4.12431e-12
-4.02775e-12
-3.96962e-12
-4.01081e-12
-4.1531e-12
-4.12257e-12
-4.10298e-12
-4.44677e-12
-4.39583e-12
-4.83343e-12
-4.84405e-12
-4.59393e-12
-4.51308e-12
-5.22804e-12
-5.11394e-12
-6.69218e-12
-6.66633e-12
-5.44726e-12
-5.5481e-12
-5.72002e-12
-5.52827e-12
-4.55358e-12
-4.5935e-12
-3.75395e-12
-3.71721e-12
-3.74088e-12
-3.75263e-12
-3.71021e-12
-3.77235e-12
-3.47649e-12
-3.53525e-12
-5.52173e-12
-5.5071e-12
-5.25294e-12
-5.36294e-12
-4.67178e-12
-4.56691e-12
-4.24706e-12
-4.32e-12
-3.97576e-12
-3.91054e-12
-5.38953e-12
-5.25951e-12
-5.26577e-12
-9.05127e-12
-9.12106e-12
-9.00227e-12
-8.56938e-12
-8.62751e-12
-8.76155e-12
-8.81927e-12
-8.81955e-12
-8.93221e-12
-7.84644e-12
-7.7144e-12
-8.25824e-12
-8.16296e-12
-6.74761e-12
-6.66715e-12
-6.82191e-12
-6.86018e-12
-6.75879e-12
-6.80214e-12
-6.79228e-12
-6.74516e-12
-7.81781e-12
-7.84158e-12
-7.88987e-12
-7.57063e-12
-7.47404e-12
-7.31643e-12
-7.41098e-12
-7.13882e-12
-7.1518e-12
-7.3988e-12
-7.33975e-12
-7.80959e-12
-7.80746e-12
-7.74248e-12
-7.69106e-12
-9.8676e-12
-9.88875e-12
-9.85624e-12
-9.83728e-12
-9.72509e-12
-9.7425e-12
-9.49301e-12
-9.53708e-12
-9.26741e-12
-9.13392e-12
-9.06676e-12
-9.44999e-12
-9.49583e-12
-9.57862e-12
-9.52433e-12
-9.27936e-12
-9.35299e-12
-9.10994e-12
-9.01887e-12
-8.82474e-12
-8.80453e-12
-9.28403e-12
-9.32978e-12
-9.02314e-12
-9.0679e-12
-8.7379e-12
-8.79182e-12
-8.41459e-12
-8.34849e-12
-8.54718e-12
-8.58986e-12
-8.48503e-12
-8.47009e-12
-7.92453e-12
-7.91398e-12
-7.91533e-12
-7.92774e-12
-8.21474e-12
-8.26065e-12
-8.27793e-12
-9.08173e-12
-9.08387e-12
-8.72683e-12
-8.62169e-12
-9.0216e-12
-8.92682e-12
-6.20705e-12
-6.19723e-12
-6.17757e-12
-6.16715e-12
-7.24553e-12
-7.24131e-12
-7.66717e-12
-7.6613e-12
-9.13471e-12
-9.22564e-12
-8.70665e-12
-8.8172e-12
-8.11888e-12
-8.25186e-12
-7.34826e-12
-7.18968e-12
-6.90046e-12
-6.8687e-12
-5.85037e-12
-5.85089e-12
-5.07229e-12
-5.06917e-12
-5.65821e-12
-5.63913e-12
-3.04147e-12
-2.90666e-12
-4.27645e-12
-4.26999e-12
-4.02166e-12
-3.87741e-12
-4.61367e-12
-4.76639e-12
-4.44998e-12
-4.60099e-12
-2.99418e-12
-2.8579e-12
-3.55726e-12
-3.7072e-12
-3.21783e-12
-3.36225e-12
-2.10666e-12
-2.11219e-12
-1.21801e-13
-1.22299e-13
-5.90275e-14
-6.50732e-14
-3.09273e-14
-3.00325e-14
-5.481e-14
-6.06963e-14
-5.94622e-13
-5.53691e-13
-1.32087e-12
-1.4052e-12
-5.06934e-13
-5.06243e-13
-3.08111e-13
-3.07578e-13
-7.62067e-12
-7.51064e-12
-7.50619e-12
-8.24834e-12
-8.3618e-12
-7.59565e-12
-7.69847e-12
-7.52343e-12
-7.35115e-12
-7.66122e-12
-7.50624e-12
-7.14696e-12
-7.26148e-12
-8.39462e-12
-8.39503e-12
-8.45526e-12
-8.46764e-12
-8.15098e-12
-8.21427e-12
-8.0007e-12
-8.05493e-12
-8.02606e-12
-7.99627e-12
-6.86886e-12
-6.93175e-12
-6.12431e-12
-6.13575e-12
-6.62443e-15
-5.95251e-15
-5.12537e-13
-4.97767e-13
-3.509e-13
-3.61586e-13
-3.70342e-13
-3.59207e-13
-2.76911e-14
-2.66068e-14
-1.45805e-13
-1.42993e-13
-7.2352e-12
-7.13318e-12
-8.82721e-12
-8.81288e-12
-8.75307e-12
-8.74454e-12
-7.43161e-12
-7.3349e-12
-8.27169e-12
-8.21722e-12
-8.69088e-12
-8.66744e-12
-8.58625e-12
-8.61091e-12
-8.57479e-12
-8.55214e-12
-8.49595e-12
-8.52245e-12
-8.53565e-12
-7.21055e-12
-4.09163e-12
-4.17454e-12
-3.83816e-12
-3.90786e-12
-4.30148e-12
-4.3496e-12
-4.4554e-12
-4.35986e-12
-4.73754e-12
-4.72777e-12
-5.00717e-12
-4.89225e-12
-5.03317e-12
-4.93637e-12
-6.831e-12
-6.83325e-12
-6.94947e-12
-6.46405e-12
-6.52008e-12
-5.12507e-12
-5.22649e-12
-5.89694e-12
-5.96755e-12
-4.34657e-12
-4.27389e-12
-4.30216e-12
-4.3502e-12
-3.92003e-12
-3.95175e-12
-3.71552e-12
-3.59266e-12
-3.65075e-12
-3.74521e-12
-3.76281e-12
-5.34529e-12
-5.44601e-12
-5.58841e-12
-5.54893e-12
-5.10124e-12
-4.99488e-12
-4.32573e-12
-4.41185e-12
-4.81805e-12
-4.76192e-12
-4.68759e-12
-5.13443e-12
-5.02243e-12
-5.45465e-12
-5.31969e-12
-5.9228e-12
-5.79003e-12
-5.80817e-12
-8.32721e-12
-8.26812e-12
-8.3703e-12
-8.47012e-12
-8.52335e-12
-8.66756e-12
-8.72624e-12
-8.86485e-12
-8.9729e-12
-7.95863e-12
-7.12585e-12
-7.13783e-12
-6.91642e-12
-6.905e-12
-6.78633e-12
-6.75178e-12
-6.83409e-12
-6.84229e-12
-7.6313e-12
-7.60927e-12
-7.88071e-12
-7.94107e-12
-7.5381e-12
-7.44759e-12
-7.38168e-12
-7.29282e-12
-7.4651e-12
-7.4332e-12
-7.23507e-12
-7.22393e-12
-7.72147e-12
-7.74835e-12
-9.83026e-12
-9.85734e-12
-9.71735e-12
-9.74612e-12
-9.82477e-12
-9.8462e-12
-9.73787e-12
-9.72698e-12
-9.41929e-12
-9.46745e-12
-9.39373e-12
-9.34637e-12
-9.27457e-12
-9.33972e-12
-9.35747e-12
-9.30336e-12
-9.23335e-12
-9.15025e-12
-9.17889e-12
-9.19309e-12
-9.28671e-12
-9.324e-12
-8.88547e-12
-8.83473e-12
-8.76063e-12
-8.82921e-12
-8.5129e-12
-8.48765e-12
-8.65051e-12
-8.69055e-12
-8.35757e-12
-8.3711e-12
-8.02231e-12
-8.0326e-12
-8.14417e-12
-8.13321e-12
-8.12173e-12
-8.17177e-12
-9.08601e-12
-9.09643e-12
-9.17131e-12
-9.17221e-12
-8.85785e-12
-8.82855e-12
-6.33669e-12
-6.34718e-12
-7.09852e-12
-7.09479e-12
-7.38471e-12
-7.52481e-12
-8.40823e-12
-8.52251e-12
-7.77676e-12
-7.78931e-12
-9.24199e-12
-9.24377e-12
-8.92338e-12
-8.89111e-12
-8.55732e-12
-8.43724e-12
-8.34781e-12
-8.31276e-12
-7.95476e-12
-8.09847e-12
-7.11386e-12
-7.27055e-12
-3.78569e-12
-3.6391e-12
-6.00984e-12
-6.00963e-12
-6.06801e-12
-5.90153e-12
-5.75896e-12
-5.73171e-12
-5.26271e-12
-5.23661e-12
-5.17922e-12
-3.63653e-12
-3.79147e-12
-3.95009e-12
-4.11012e-12
-4.28775e-12
-4.0149e-12
-3.87028e-12
-4.61521e-12
-4.76757e-12
-4.7637e-12
-4.75971e-12
-4.13472e-12
-4.10725e-12
-3.95004e-12
-3.79429e-12
-3.15418e-12
-3.2936e-12
-3.56153e-12
-3.70811e-12
-3.23295e-12
-3.37838e-12
-2.29358e-12
-2.4122e-12
-2.76022e-12
-2.75304e-12
-7.20979e-14
-6.47069e-14
-1.28495e-13
-1.16372e-13
-7.17305e-14
-7.10166e-14
-3.77286e-14
-3.48449e-14
-3.16039e-14
-3.06884e-14
-4.31508e-14
-3.9468e-14
-5.95805e-13
-5.55053e-13
-1.49928e-12
-1.49732e-12
-8.62171e-13
-8.5694e-13
-4.298e-13
-4.30228e-13
-4.65476e-13
-4.66148e-13
-1.69857e-13
-1.68611e-13
-3.84747e-14
-3.85276e-14
-7.71502e-12
-7.60513e-12
-8.09128e-12
-8.14099e-12
-7.5011e-12
-7.59393e-12
-7.84289e-12
-7.93009e-12
-7.32625e-12
-7.37323e-12
-7.4861e-12
-8.73512e-12
-8.73652e-12
-6.33294e-12
-6.23352e-12
-8.39646e-12
-8.37502e-12
-8.39566e-12
-8.45057e-12
-8.43095e-12
-8.26902e-12
-8.31113e-12
-7.71375e-12
-7.71395e-12
-7.67265e-12
-7.63204e-12
-7.92913e-12
-7.91545e-12
-8.11886e-12
-6.78017e-12
-6.77164e-12
-6.29477e-12
-6.45347e-12
-9.85366e-14
-9.4619e-14
-7.04913e-15
-6.78396e-15
-7.32159e-13
-7.38258e-13
-6.08208e-13
-5.92319e-13
-3.22228e-13
-3.3213e-13
-3.06031e-14
-2.94949e-14
-1.29847e-13
-1.32412e-13
-7.77538e-12
-7.67919e-12
-7.49576e-12
-7.39857e-12
-8.86698e-12
-8.88416e-12
-8.62776e-12
-8.65628e-12
-8.72768e-12
-8.71779e-12
-8.77827e-12
-8.77466e-12
-8.16075e-12
-8.10235e-12
-8.67936e-12
-8.70291e-12
-8.74316e-12
-8.75471e-12
-8.56923e-12
-8.59585e-12
-8.617e-12
-8.59652e-12
-8.48208e-12
-8.4587e-12
-4.40532e-12
-4.49704e-12
-4.32358e-12
-4.40173e-12
-3.90113e-12
-3.82447e-12
-4.02953e-12
-3.95986e-12
-4.49334e-12
-4.54611e-12
-4.6329e-12
-4.62391e-12
-4.7847e-12
-4.68553e-12
-4.91357e-12
-4.82612e-12
-6.24917e-12
-6.2645e-12
-6.38903e-12
-5.33947e-12
-5.36973e-12
-5.24335e-12
-5.33978e-12
-5.72528e-12
-5.81444e-12
-4.3823e-12
-4.48226e-12
-3.79334e-12
-3.87849e-12
-3.6546e-12
-3.59052e-12
-5.81849e-12
-5.78138e-12
-5.43426e-12
-5.47486e-12
-3.90079e-12
-3.84164e-12
-4.38562e-12
-4.31516e-12
-4.1771e-12
-4.24899e-12
-5.66251e-12
-5.8135e-12
-5.74592e-12
-5.26346e-12
-5.33064e-12
-5.02669e-12
-4.92826e-12
-5.50093e-12
-5.44299e-12
-5.37086e-12
-5.13333e-12
-6.00103e-12
-5.98422e-12
-9.77817e-12
-9.76457e-12
-8.18104e-12
-8.1008e-12
-8.40872e-12
-8.51302e-12
-8.41602e-12
-8.84459e-12
-8.90248e-12
-8.93498e-12
-8.71621e-12
-8.76327e-12
-7.06323e-12
-7.00121e-12
-7.02799e-12
-7.06141e-12
-6.84454e-12
-6.83483e-12
-6.61015e-12
-6.57452e-12
-6.61095e-12
-6.98167e-12
-6.97611e-12
-6.86016e-12
-6.88769e-12
-7.52909e-12
-7.50864e-12
-7.82993e-12
-7.77403e-12
-7.72809e-12
-7.63288e-12
-7.41261e-12
-7.51013e-12
-7.34383e-12
-7.37727e-12
-9.80125e-12
-9.83196e-12
-9.90947e-12
-9.9127e-12
-9.77455e-12
-9.80262e-12
-9.62688e-12
-9.65784e-12
-9.63123e-12
-9.67175e-12
-9.66709e-12
-9.64783e-12
-9.45779e-12
-9.48161e-12
-9.4126e-12
-9.44589e-12
-9.34465e-12
-9.40511e-12
-9.10925e-12
-9.0928e-12
-9.24112e-12
-9.20148e-12
-9.20188e-12
-9.25127e-12
-8.69737e-12
-8.64018e-12
-8.85151e-12
-8.91618e-12
-8.40658e-12
-8.37925e-12
-8.35459e-12
-8.36182e-12
-8.13211e-12
-8.14167e-12
-8.02637e-12
-8.08055e-12
-8.99237e-12
-9.00367e-12
-9.21658e-12
-9.18621e-12
-6.93997e-12
-6.94266e-12
-6.83342e-12
-6.67746e-12
-7.54702e-12
-7.40524e-12
-7.93721e-12
-7.80695e-12
-8.54063e-12
-8.41992e-12
-6.7292e-12
-6.72651e-12
-8.38821e-12
-8.253e-12
-9.04759e-12
-9.04994e-12
-8.66724e-12
-8.79894e-12
-8.7378e-12
-8.84743e-12
-8.17611e-12
-8.30984e-12
-8.472e-12
-8.59161e-12
-8.38046e-12
-7.96628e-12
-8.11032e-12
-7.80779e-12
-7.91423e-12
-7.77371e-12
-7.18035e-12
-7.02556e-12
-3.05414e-12
-2.91885e-12
-3.37998e-12
-3.52536e-12
-4.76734e-12
-4.77027e-12
-5.69548e-12
-5.6982e-12
-6.55072e-12
-6.55583e-12
-6.40019e-12
-6.56525e-12
-5.22445e-12
-5.231e-12
-5.42773e-12
-5.4014e-12
-4.77277e-12
-4.74665e-12
-3.47585e-12
-3.33062e-12
-4.11603e-12
-4.12664e-12
-4.76486e-12
-4.76713e-12
-4.31728e-12
-4.17303e-12
-4.60639e-12
-4.45551e-12
-4.6117e-12
-4.58523e-12
-3.81913e-12
-3.84381e-12
-3.28707e-12
-3.14739e-12
-3.41007e-12
-3.41647e-12
-3.64078e-12
-3.49061e-12
-2.81701e-12
-2.95259e-12
-1.23825e-12
-1.16131e-12
-2.65687e-12
-2.78458e-12
-2.48954e-12
-2.49801e-12
-2.76761e-12
-5.29541e-13
-4.89509e-13
-6.89339e-14
-7.62671e-14
-1.20615e-13
-1.32637e-13
-6.31748e-14
-6.93187e-14
-6.03525e-14
-6.64908e-14
-4.96972e-14
-5.4758e-14
-3.52285e-14
-3.81493e-14
-3.36358e-14
-3.3275e-14
-4.03502e-14
-4.41466e-14
-3.2944e-14
-3.19742e-14
-2.7612e-12
-2.8869e-12
-9.03054e-13
-9.02199e-13
-6.40915e-13
-6.41874e-13
-7.28618e-13
-6.77344e-13
-3.94814e-13
-3.94981e-13
-4.66774e-13
-4.67338e-13
-2.09791e-13
-2.09319e-13
-7.83677e-14
-7.8256e-14
-3.59563e-14
-3.53085e-14
-9.37413e-12
-9.36529e-12
-8.28404e-12
-8.18328e-12
-8.2428e-12
-7.98124e-12
-8.0373e-12
-7.87361e-12
-7.91912e-12
-7.95764e-12
-7.67004e-12
-7.0633e-12
-8.59145e-12
-8.59826e-12
-8.09935e-12
-8.14437e-12
-6.43291e-12
-6.40958e-12
-7.37359e-12
-7.29623e-12
-8.42332e-12
-8.41566e-12
-8.2892e-12
-8.25592e-12
-8.37727e-12
-8.34788e-12
-7.68835e-12
-7.7722e-12
-7.68232e-12
-7.80663e-12
-7.76244e-12
-7.73948e-12
-7.80704e-12
-8.31403e-12
-8.28041e-12
-8.26155e-12
-6.06128e-12
-6.11951e-12
-6.83552e-12
-6.90274e-12
-6.95216e-12
-7.11151e-12
-1.39533e-13
-1.38622e-13
-2.46429e-14
-2.75848e-14
-6.71296e-15
-6.46001e-15
-6.35907e-13
-6.85567e-13
-1.16766e-12
-1.19554e-12
-5.47578e-13
-5.62393e-13
-4.02437e-13
-3.90457e-13
-2.40032e-13
-2.32456e-13
-2.18031e-13
-2.11954e-13
-1.53603e-14
-1.48042e-14
-9.90125e-14
-9.71353e-14
-3.20509e-14
-2.91572e-14
-7.17645e-12
-7.07351e-12
-7.29994e-12
-7.19947e-12
-9.00128e-12
-9.00349e-12
-8.74146e-12
-8.72787e-12
-8.7131e-12
-8.69476e-12
-8.70566e-12
-8.7742e-12
-8.7766e-12
-7.75295e-12
-7.83863e-12
-8.45144e-12
-8.49153e-12
-8.65936e-12
-8.68548e-12
-8.73376e-12
-8.74849e-12
-8.71288e-12
-8.70066e-12
-8.38273e-12
-8.41816e-12
-8.59761e-12
-8.62066e-12
-8.5581e-12
-8.58072e-12
-7.30358e-12
-7.29904e-12
-4.3167e-12
-4.41527e-12
-4.40849e-12
-4.49546e-12
-3.96429e-12
-3.97982e-12
-3.89255e-12
-3.82636e-12
-4.5941e-12
-4.64851e-12
-4.33731e-12
-4.32719e-12
-4.78896e-12
-4.89822e-12
-7.02085e-12
-7.00236e-12
-6.25364e-12
-5.46661e-12
-3.67911e-12
-3.64449e-12
-5.66473e-12
-5.70305e-12
-3.78441e-12
-4.39447e-12
-4.47155e-12
-4.25763e-12
-4.32719e-12
-4.9773e-12
-4.909e-12
-5.06554e-12
-4.94863e-12
-4.86232e-12
-4.85778e-12
-5.6393e-12
-5.83938e-12
-5.8053e-12
-6.60539e-12
-9.43734e-12
-9.42322e-12
-8.09779e-12
-8.00594e-12
-8.45562e-12
-8.39453e-12
-8.71064e-12
-8.61231e-12
-9.03232e-12
-7.26286e-12
-7.35629e-12
-7.51319e-12
-7.08867e-12
-7.10216e-12
-7.08727e-12
-7.16651e-12
-6.97913e-12
-7.03273e-12
-6.71934e-12
-6.71042e-12
-6.62097e-12
-6.65084e-12
-7.05786e-12
-7.05402e-12
-6.95415e-12
-6.92695e-12
-7.61109e-12
-7.56344e-12
-7.73565e-12
-7.71246e-12
-7.54762e-12
-7.64331e-12
-9.55823e-12
-9.60164e-12
-9.72536e-12
-9.76436e-12
-9.86174e-12
-9.8837e-12
-9.89973e-12
-9.77923e-12
-9.75475e-12
-9.76199e-12
-9.78271e-12
-9.71715e-12
-9.68783e-12
-9.58403e-12
-9.57843e-12
-9.63706e-12
-9.51627e-12
-8.79023e-12
-8.75267e-12
-9.01902e-12
-9.0013e-12
-9.36376e-12
-9.40578e-12
-8.60254e-12
-8.54211e-12
-8.46593e-12
-8.47184e-12
-8.18435e-12
-8.16334e-12
-9.23242e-12
-9.15477e-12
-9.83727e-12
-9.81361e-12
-4.51091e-12
-4.66043e-12
-8.24303e-12
-8.32239e-12
-8.44329e-12
-8.34367e-12
-7.1073e-12
-7.11236e-12
-7.95066e-12
-7.81982e-12
-7.53007e-12
-7.38945e-12
-7.67319e-12
-8.94649e-12
-9.03251e-12
-7.04823e-12
-7.05256e-12
-6.88343e-12
-6.72255e-12
-8.50411e-12
-8.61644e-12
-9.12372e-12
-9.21485e-12
-9.14485e-12
-9.14474e-12
-9.02206e-12
-9.03793e-12
-9.02534e-12
-9.1231e-12
-8.95269e-12
-8.41083e-12
-8.43905e-12
-8.50441e-12
-8.62351e-12
-7.97398e-12
-8.11793e-12
-7.77312e-12
-7.79232e-12
-6.65388e-12
-6.81676e-12
-7.05797e-12
-7.21338e-12
-3.32806e-12
-3.19006e-12
-3.51934e-12
-3.37426e-12
-4.61556e-12
-4.47073e-12
-4.76576e-12
-6.48194e-12
-6.48294e-12
-5.23726e-12
-5.07543e-12
-5.89716e-12
-5.90007e-12
-6.23364e-12
-6.23176e-12
-5.92446e-12
-5.89672e-12
-5.70138e-12
-5.68923e-12
-5.28643e-12
-5.45166e-12
-4.935e-12
-4.90905e-12
-4.79702e-12
-3.05701e-12
-3.19627e-12
-3.79193e-12
-3.6355e-12
-4.61488e-12
-4.46683e-12
-3.89789e-12
-4.04031e-12
-4.46391e-12
-4.46638e-12
-4.56334e-12
-4.71605e-12
-4.29296e-12
-4.2656e-12
-4.16281e-12
-3.00217e-12
-2.86596e-12
-3.57113e-12
-3.71493e-12
-3.42246e-12
-3.5106e-12
-3.66305e-12
-2.83964e-12
-2.97588e-12
-3.09122e-12
-2.79685e-12
-2.79248e-12
-2.65914e-12
-2.78727e-12
-2.64525e-12
-2.65236e-12
-2.5083e-12
-2.63673e-12
-7.97897e-13
-7.42545e-13
-2.10364e-13
-2.10312e-13
-7.53634e-14
-7.64727e-14
-7.08265e-14
-1.2098e-13
-1.3304e-13
-1.05295e-13
-9.53321e-14
-7.90782e-14
-8.7202e-14
-7.32061e-14
-7.2459e-14
-5.03067e-14
-5.54511e-14
-3.56189e-14
-3.85823e-14
-3.29156e-14
-3.25591e-14
-5.82084e-14
-5.2462e-14
-3.99125e-14
-4.36567e-14
-3.87093e-14
-3.60883e-14
-2.07189e-12
-1.96724e-12
-1.68247e-12
-1.5879e-12
-8.46877e-13
-8.46048e-13
-1.02747e-12
-1.02845e-12
-1.34647e-12
-1.42545e-12
-7.97573e-13
-8.01775e-13
-6.35565e-13
-6.33398e-13
-4.39619e-13
-4.74613e-13
-3.95197e-13
-3.95477e-13
-3.34373e-13
-3.3394e-13
-2.08773e-13
-2.07957e-13
-3.54734e-14
-3.5615e-14
-3.60015e-14
-3.57672e-14
-3.54189e-14
-9.30532e-12
-9.28869e-12
-6.71817e-12
-6.82951e-12
-8.06063e-12
-7.99262e-12
-8.09916e-12
-8.32004e-12
-8.02343e-12
-7.99894e-12
-7.67313e-12
-7.81096e-12
-7.89961e-12
-7.80527e-12
-7.59409e-12
-7.438e-12
-8.656e-12
-8.65925e-12
-7.3042e-12
-7.42623e-12
-6.57359e-12
-6.57062e-12
-6.31645e-12
-6.2258e-12
-6.62656e-12
-6.57583e-12
-7.07401e-12
-7.11907e-12
-8.49831e-12
-8.4963e-12
-8.34494e-12
-8.31986e-12
-8.34176e-12
-8.37127e-12
-8.39851e-12
-7.73949e-12
-7.82866e-12
-7.81514e-12
-7.35655e-12
-7.23768e-12
-7.87869e-12
-7.84238e-12
-7.95602e-12
-5.28968e-12
-5.16191e-12
-5.15289e-12
-6.83741e-12
-6.80902e-12
-6.79094e-12
-6.73778e-12
-6.60962e-12
-4.92178e-12
-4.86892e-12
-1.09665e-12
-1.11092e-12
-1.40586e-13
-1.3469e-13
-5.66925e-14
-6.3031e-14
-2.58987e-14
-2.89794e-14
-6.38606e-15
-6.14498e-15
-1.65587e-14
-1.47533e-14
-6.79792e-13
-6.30443e-13
-8.1153e-13
-7.90039e-13
-5.05603e-13
-5.194e-13
-4.41134e-13
-4.53602e-13
-4.36763e-13
-4.2391e-13
-2.87755e-13
-2.96457e-13
-2.00134e-13
-1.93719e-13
-2.00889e-14
-1.93217e-14
-1.77487e-14
-1.63585e-14
-1.67476e-14
-1.61662e-14
-1.025e-13
-1.00088e-13
-8.46516e-14
-8.24356e-14
-3.81226e-14
-3.42445e-14
-2.46481e-14
-2.38347e-14
-7.38011e-12
-7.27846e-12
-7.46659e-12
-7.56118e-12
-8.97746e-12
-8.97302e-12
-8.72366e-12
-8.73845e-12
-8.73377e-12
-8.72033e-12
-8.76557e-12
-8.76249e-12
-8.77677e-12
-8.77471e-12
-8.27995e-12
-8.34718e-12
-8.12327e-12
-8.07156e-12
-8.63731e-12
-8.66612e-12
-8.65322e-12
-8.62467e-12
-8.74004e-12
-8.75306e-12
-8.68675e-12
-8.67133e-12
-8.42172e-12
-8.39075e-12
-8.54682e-12
-8.5757e-12
-8.54833e-12
-8.57346e-12
-8.60275e-12
-8.6237e-12
-7.48148e-12
-7.55478e-12
-4.19568e-12
-4.17228e-12
-4.25823e-12
-4.49474e-12
-4.58724e-12
-4.04132e-12
-4.06265e-12
-4.55488e-12
-7.06717e-12
-7.61118e-12
-7.54537e-12
-3.88911e-12
-3.86299e-12
-3.83565e-12
-4.48478e-12
-4.58563e-12
-5.48468e-12
-5.37657e-12
-4.60799e-12
-4.71852e-12
-4.76906e-12
-5.20118e-12
-6.06047e-12
-9.50406e-12
-9.49987e-12
-9.1331e-12
-9.21845e-12
-9.21889e-12
-8.20223e-12
-8.30666e-12
-8.66071e-12
-8.60808e-12
-7.53816e-12
-7.60575e-12
-7.66775e-12
-7.22037e-12
-7.25014e-12
-6.9291e-12
-6.83443e-12
-7.03784e-12
-7.01139e-12
-7.05567e-12
-7.11282e-12
-6.77882e-12
-6.76998e-12
-6.70696e-12
-6.68037e-12
-7.0984e-12
-7.07264e-12
-6.90984e-12
-6.90278e-12
-7.66761e-12
-7.71737e-12
-9.76978e-12
-9.73763e-12
-9.80197e-12
-9.83432e-12
-9.87639e-12
-9.85251e-12
-9.68812e-12
-9.73036e-12
-9.70061e-12
-9.71185e-12
-9.51364e-12
-8.85281e-12
-8.88813e-12
-8.72275e-12
-8.70103e-12
-9.1558e-12
-9.11372e-12
-8.24473e-12
-8.25633e-12
-1.00365e-11
-1.00327e-11
-1.00042e-11
-1.00135e-11
-9.83213e-12
-9.81214e-12
-4.9378e-12
-4.93203e-12
-4.91329e-12
-4.90726e-12
-8.30893e-12
-8.37777e-12
-7.91525e-12
-7.78692e-12
-7.74206e-12
-7.8604e-12
-8.77768e-12
-8.85436e-12
-6.79695e-12
-6.79397e-12
-7.25013e-12
-7.10275e-12
-7.67912e-12
-7.68531e-12
-7.53562e-12
-7.39454e-12
-8.92934e-12
-9.0142e-12
-7.2061e-12
-7.21126e-12
-6.88825e-12
-6.89175e-12
-7.877e-12
-8.01078e-12
-9.09506e-12
-9.18727e-12
-9.11023e-12
-9.20188e-12
-9.14483e-12
-9.23899e-12
-8.77395e-12
-8.64221e-12
-9.24457e-12
-9.24422e-12
-8.97899e-12
-9.00219e-12
-9.09213e-12
-8.99373e-12
-8.28208e-12
-8.14884e-12
-7.81929e-12
-7.82711e-12
-7.8698e-12
-8.01133e-12
-6.7944e-12
-6.63212e-12
-7.08743e-12
-7.24348e-12
-3.05513e-12
-2.91952e-12
-3.05554e-12
-2.92159e-12
-3.51227e-12
-3.36786e-12
-4.61201e-12
-4.61383e-12
-5.23857e-12
-5.24308e-12
-6.32624e-12
-6.32568e-12
-6.03305e-12
-5.87117e-12
-6.21589e-12
-6.21069e-12
-6.06691e-12
-6.0643e-12
-6.56011e-12
-6.56331e-12
-6.53685e-12
-6.52379e-12
-5.06314e-12
-5.06983e-12
-5.35749e-12
-5.36969e-12
-5.30772e-12
-5.32664e-12
-5.61751e-12
-5.59333e-12
-4.81936e-12
-4.83955e-12
-5.09839e-12
-5.07246e-12
-3.59754e-12
-3.74182e-12
-3.19492e-12
-3.05591e-12
-3.79035e-12