/*--------------------------------*- C++ -*----------------------------------*\
  =========                 |
  \\      /  F ield         | OpenFOAM: The Open Source CFD Toolbox
   \\    /   O peration     | Website:  https://openfoam.org
    \\  /    A nd           | Version:  7
     \\/     M anipulation  |
\*---------------------------------------------------------------------------*/
FoamFile
{
    version     2.0;
    format      ascii;
    class       volScalarField;
    location    "180";
    object      T;
}
// * * * * * * * * * * * * * * * * * * * * * * * * * * * * * * * * * * * * * //

dimensions      [0 0 0 1 0 0 0];

internalField   nonuniform List<scalar> 
238806
(
1.01361e-06
9.79244e-07
6.68693e-07
6.49153e-07
6.93404e-07
9.13105e-07
9.19107e-07
1.00766e-06
1.04338e-06
6.30597e-07
6.1463e-07
7.39491e-07
3.27784e-07
3.20003e-07
3.69503e-07
4.02452e-07
6.06031e-07
5.85882e-07
1.35636e-06
1.36464e-06
4.0848e-07
3.92086e-07
3.99653e-07
3.9011e-07
3.7102e-07
6.38876e-07
6.12711e-07
6.0688e-07
5.41768e-07
5.49999e-07
1.33186e-06
1.36387e-06
4.50982e-07
4.79302e-07
4.77605e-07
5.08986e-07
-5.35419e-12
-5.35181e-12
6.53814e-07
6.73393e-07
6.42795e-07
6.05236e-07
1.32181e-06
1.35014e-06
1.32921e-06
1.32005e-06
3.39415e-07
3.68652e-07
5.08682e-07
5.38892e-07
6.98295e-07
7.10953e-07
3.50389e-07
3.4194e-07
7.0605e-12
7.22904e-12
6.48481e-07
6.72842e-07
6.71652e-07
7.2653e-07
7.01265e-07
6.89556e-07
6.87621e-07
6.7629e-07
7.06025e-07
1.29957e-06
1.29433e-06
1.07969e-06
1.05159e-06
8.74744e-07
8.4041e-07
4.38235e-07
4.12116e-07
5.1446e-07
4.86697e-07
6.14609e-07
5.98502e-07
4.76825e-07
5.07885e-07
2.01186e-09
2.04394e-09
5.22266e-07
5.54117e-07
1.06389e-06
1.08156e-06
7.781e-07
7.43701e-07
5.43553e-07
5.62371e-07
5.82012e-07
5.63821e-07
7.58304e-07
7.26355e-07
1.23806e-06
1.21665e-06
6.40418e-07
6.72667e-07
6.57012e-07
6.23638e-07
5.9559e-07
1.28384e-06
1.08916e-06
1.06859e-06
1.03434e-06
1.04085e-06
2.51514e-07
2.3856e-07
4.66211e-07
4.42081e-07
4.58963e-07
4.31597e-07
6.17818e-07
6.38863e-07
6.74059e-07
6.62703e-07
3.34219e-07
3.57323e-07
-5.04099e-12
-5.04421e-12
-5.04363e-12
3.3894e-07
3.08874e-07
1.00921e-06
9.92262e-07
9.46921e-07
9.53113e-07
3.40236e-07
3.37475e-07
5.07322e-07
5.17829e-07
6.99156e-07
5.55703e-07
5.4063e-07
5.6118e-07
7.55592e-07
7.89651e-07
1.22541e-06
1.25759e-06
4.30103e-07
4.09211e-07
4.17706e-07
4.32017e-07
6.92006e-07
1.18353e-06
1.15303e-06
1.16187e-06
1.14039e-06
1.0322e-06
1.05213e-06
9.21744e-07
9.00072e-07
7.73613e-07
7.56563e-07
2.68343e-07
2.51738e-07
3.96714e-07
3.77183e-07
4.17508e-07
3.92754e-07
3.84642e-07
3.69493e-07
5.81997e-07
5.67397e-07
7.1198e-07
7.01306e-07
4.71171e-07
5.0247e-07
3.64239e-09
3.59842e-09
-5.35756e-12
-5.35514e-12
4.94544e-07
5.2291e-07
6.09978e-08
5.95963e-08
5.9517e-08
1.04486e-06
1.02739e-06
6.93419e-07
6.80999e-07
3.05928e-07
3.06302e-07
5.21128e-07
5.66508e-07
5.88932e-07
5.81614e-07
1.07842e-06
1.06805e-06
1.26917e-06
1.30041e-06
1.3156e-06
1.34444e-06
1.05175e-06
1.02826e-06
6.44578e-07
6.74127e-07
6.78815e-07
5.03158e-07
5.07646e-07
6.53095e-07
6.40839e-07
1.32389e-06
1.34219e-06
1.14899e-06
1.11977e-06
1.11486e-06
1.08681e-06
7.88252e-07
7.51187e-07
8.64413e-07
8.84798e-07
1.33853e-07
1.37976e-07
2.22793e-07
2.0777e-07
3.11021e-07
3.32944e-07
3.97142e-07
4.23685e-07
4.64375e-07
4.90204e-07
6.09985e-07
5.8903e-07
6.60146e-07
6.81192e-07
6.66245e-07
6.75309e-07
4.75752e-07
5.07232e-07
1.54406e-08
1.69971e-08
2.5539e-10
2.86725e-10
2.90202e-10
3.2772e-10
1.62843e-13
-5.2767e-13
8.68388e-07
9.11826e-07
7.54302e-07
8.06476e-07
2.51674e-07
2.28018e-07
3.97577e-08
3.7274e-08
9.74318e-07
9.59064e-07
7.48582e-07
7.61886e-07
6.97077e-07
6.64545e-07
5.69801e-07
5.44167e-07
4.00835e-07
4.11275e-07
6.28652e-07
6.57126e-07
1.22432e-06
1.25947e-06
1.24743e-06
1.28021e-06
1.25401e-06
1.28554e-06
5.46017e-07
5.48552e-07
1.00019e-06
1.03203e-06
6.64254e-07
6.47801e-07
4.46896e-07
4.18722e-07
7.19303e-07
4.89983e-07
8.07737e-07
7.88193e-07
8.33465e-07
1.30524e-06
1.28592e-06
1.23252e-06
1.20968e-06
1.10482e-06
1.12578e-06
9.5706e-07
9.97304e-07
9.59125e-07
9.61608e-07
8.73477e-07
8.62792e-07
2.1371e-07
2.03281e-07
2.85674e-07
2.99849e-07
2.1074e-07
1.96821e-07
2.61439e-07
2.42722e-07
3.68019e-07
3.43425e-07
4.04684e-07
3.78033e-07
3.96976e-07
3.73664e-07
3.34951e-07
3.2677e-07
5.38632e-07
5.15174e-07
6.03046e-07
5.9399e-07
6.4771e-07
6.29632e-07
3.39252e-07
3.42785e-07
4.41641e-07
4.45972e-07
4.4174e-07
4.14925e-07
3.67764e-09
4.02898e-09
9.49852e-09
1.04902e-08
2.69072e-09
2.41974e-09
1.83577e-09
1.80796e-09
1.61312e-10
1.61936e-10
-5.00722e-13
1.95848e-13
-5.04291e-12
4.68322e-07
4.92787e-07
3.06063e-07
3.33979e-07
9.60623e-12
7.78864e-12
2.00482e-07
2.13584e-07
5.88454e-08
5.633e-08
9.45829e-07
9.18107e-07
9.78763e-07
9.85513e-07
7.14273e-07
7.272e-07
6.43923e-07
6.18662e-07
4.86032e-07
4.89618e-07
4.75934e-07
4.65507e-07
9.32769e-07
9.7966e-07
1.19895e-06
1.24069e-06
1.1581e-06
1.12956e-06
1.13104e-06
1.2922e-06
1.26115e-06
6.05934e-07
6.08954e-07
8.51361e-07
8.84211e-07
9.8437e-07
1.0146e-06
5.9736e-07
5.67082e-07
3.8366e-07
8.3244e-07
7.94164e-07
5.80747e-07
6.15118e-07
6.82111e-07
7.09452e-07
7.0664e-07
6.83212e-07
1.03931e-06
1.01095e-06
1.28281e-06
1.30322e-06
1.23016e-06
1.22273e-06
1.21622e-06
1.18569e-06
1.1823e-06
1.15076e-06
6.24068e-07
6.55736e-07
7.24553e-07
7.59121e-07
9.99874e-07
9.92206e-07
1.0289e-06
1.01464e-06
8.80923e-07
8.7959e-07
8.47663e-07
8.28408e-07
7.35698e-07
7.01896e-07
1.50835e-07
1.45861e-07
2.8111e-07
2.94311e-07
1.99115e-07
1.86234e-07
2.48138e-07
2.30703e-07
3.03953e-07
2.8132e-07
3.51213e-07
3.24676e-07
3.76797e-07
3.54926e-07
3.48908e-07
3.56777e-07
5.11465e-07
4.89476e-07
6.2796e-07
6.38103e-07
5.14641e-07
5.47553e-07
4.19302e-07
4.47278e-07
4.13772e-07
4.17835e-07
4.69717e-07
6.0266e-09
6.57465e-09
1.54699e-08
1.70222e-08
7.59966e-09
6.86804e-09
5.69311e-09
6.32426e-09
2.83873e-10
2.5273e-10
4.04912e-10
4.47403e-10
2.05601e-10
1.8259e-10
-5.0212e-12
-5.03185e-12
1.22481e-10
1.37566e-10
6.97448e-07
7.17522e-07
6.88032e-07
2.7433e-07
2.6289e-07
2.84374e-07
2.70404e-07
2.76796e-07
2.86623e-07
8.84174e-12
9.03052e-12
9.67996e-08
9.08141e-08
6.58688e-08
6.32588e-08
5.77972e-08
5.75454e-08
2.25388e-07
2.28116e-07
9.97279e-07
1.01991e-06
9.25898e-07
9.09387e-07
8.06307e-07
8.10711e-07
7.31015e-07
5.91124e-07
5.89228e-07
5.64898e-07
4.56087e-07
4.24595e-07
4.29311e-07
4.37894e-07
1.14528e-06
1.14907e-06
1.17434e-06
1.2058e-06
1.18468e-06
1.20792e-06
1.19169e-06
1.30428e-06
1.33364e-06
4.89605e-07
4.91799e-07
5.99633e-07
5.69753e-07
6.68846e-07
6.3703e-07
1.00817e-06
9.75878e-07
6.29915e-07
6.62343e-07
5.35232e-07
5.3831e-07
5.20576e-07
3.90244e-07
4.72151e-07
4.75248e-07
4.61615e-07
4.51154e-07
5.23123e-07
6.78627e-07
9.38901e-07
9.73965e-07
1.14694e-06
1.11839e-06
1.26812e-06
1.24779e-06
1.21068e-06
1.24732e-06
1.30163e-06
1.27757e-06
1.17531e-06
1.1974e-06
6.7875e-07
6.47068e-07
8.14019e-07
7.74608e-07
8.95606e-07
9.36606e-07
9.19364e-07
9.21235e-07
9.95328e-07
9.71052e-07
8.00578e-07
8.01046e-07
8.24662e-07
8.34513e-07
7.21401e-07
7.37163e-07
1.15617e-07
1.20354e-07
2.08384e-07
2.28188e-07
3.36624e-07
3.53419e-07
2.53384e-07
2.67417e-07
2.24898e-07
2.39161e-07
2.65865e-07
2.83737e-07
2.35267e-07
2.19066e-07
2.89314e-07
2.67964e-07
3.34813e-07
3.09753e-07
3.9835e-07
4.19351e-07
3.57093e-07
3.36655e-07
4.12059e-07
4.16741e-07
3.98662e-07
4.11335e-07
4.84762e-07
4.64252e-07
5.68114e-07
5.94455e-07
5.04032e-07
4.97595e-07
6.81759e-07
6.85201e-07
5.80055e-07
5.54465e-07
5.27705e-07
4.98666e-07
4.47841e-07
4.19678e-07
3.89367e-07
3.65054e-07
1.55585e-09
1.41408e-09
4.02652e-09
3.67585e-09
9.54269e-09
1.0543e-08
3.27129e-09
3.23251e-09
2.42896e-09
2.70217e-09
1.1804e-09
1.06835e-09
3.31156e-10
3.25359e-10
4.18668e-10
4.16954e-10
1.81929e-10
2.04964e-10
-5.30798e-12
-5.33543e-12
-5.33512e-12
-5.33293e-12
2.29393e-11
2.30951e-11
-1.03754e-12
-1.05551e-12
5.68751e-07
5.32743e-07
9.13183e-07
9.0093e-07
2.31669e-07
2.21153e-07
4.64931e-07
4.34814e-07
4.37744e-07
4.7472e-07
2.96335e-07
3.22832e-07
1.83045e-11
1.86059e-11
-4.9629e-12
-4.96056e-12
2.71652e-08
2.62211e-08
4.73619e-08
4.44798e-08
4.15616e-08
4.36232e-08
5.63118e-08
5.46265e-08
5.56679e-08
5.96194e-08
9.12505e-07
8.85155e-07
1.00581e-06
1.04278e-06
1.06473e-06
1.09879e-06
9.03525e-07
9.38114e-07
8.42266e-07
8.4735e-07
7.18423e-07
7.5224e-07
6.57535e-07
6.23616e-07
2.7534e-07
2.77598e-07
5.1548e-07
4.92126e-07
5.07025e-07
4.63905e-07
4.21044e-07
8.40435e-07
8.33422e-07
1.10076e-06
1.07997e-06
1.19588e-06
1.16433e-06
1.17163e-06
1.15629e-06
1.28844e-06
1.31851e-06
4.6285e-07
4.64905e-07
6.50569e-07
6.20137e-07
5.7558e-07
5.78333e-07
9.39536e-07
9.69282e-07
1.04126e-06
1.07503e-06
5.50465e-07
5.23463e-07
5.25372e-07
6.37539e-07
6.0242e-07
5.81878e-07
7.38681e-07
7.6513e-07
7.82375e-07
7.59138e-07
7.26827e-07
5.91417e-07
5.57692e-07
4.23167e-07
7.42741e-07
1.0043e-06
9.70703e-07
1.26388e-06
1.24165e-06
1.25886e-06
1.26557e-06
1.24923e-06
1.21809e-06
6.96746e-07
6.88145e-07
6.65483e-07
7.14228e-07
6.90086e-07
8.9985e-07
9.35992e-07
9.5061e-07
9.09487e-07
9.78411e-07
1.02231e-06
9.76973e-07
9.90387e-07
9.41497e-07
9.08332e-07
7.4912e-07
7.5732e-07
8.39964e-07
8.40831e-07
8.0542e-07
7.70295e-07
1.88054e-07
1.97299e-07
1.53229e-07
1.47161e-07
1.45445e-07
1.48635e-07
2.16664e-07
2.27224e-07
3.1886e-07
3.37894e-07
3.17375e-07
3.32899e-07
2.68844e-07
2.84025e-07
2.25412e-07
2.12217e-07
2.80469e-07
2.99658e-07
2.75171e-07
2.55132e-07
3.19113e-07
2.95257e-07
4.20026e-07
4.42552e-07
3.72138e-07
3.80252e-07
3.61714e-07
3.47738e-07
5.50594e-07
5.31884e-07
5.66246e-07
5.41299e-07
5.50035e-07
5.36726e-07
6.11629e-07
6.08966e-07
5.72988e-07
5.99274e-07
5.94763e-07
5.27445e-07
5.63471e-07
3.93167e-07
3.92994e-07
4.53967e-07
4.83456e-07
3.74236e-07
3.99409e-07
2.1084e-07
2.24376e-07
1.54786e-09
1.54264e-09
3.08285e-09
2.80785e-09
3.8752e-09
3.9444e-09
1.24529e-08
1.12991e-08
6.92554e-09
7.66614e-09
5.67246e-09
6.30438e-09
2.80833e-10
2.49897e-10
7.72253e-10
7.61332e-10
9.135e-10
9.1546e-10
4.81508e-10
5.32596e-10
5.06082e-10
5.61289e-10
2.78391e-10
3.11105e-10
2.60009e-10
2.31276e-10
3.67655e-12
4.92507e-12
-5.10937e-12
-5.04155e-12
-5.37016e-12
-5.37941e-12
-5.34572e-12
-5.34344e-12
-5.30837e-12
-5.3064e-12
1.95898e-11
1.95624e-11
-5.04736e-12
-5.04774e-12
-5.05063e-12
4.95657e-07
5.09127e-07
9.10279e-07
8.74824e-07
8.58237e-07
9.38797e-07
8.95042e-07
1.06964e-06
1.11926e-06
2.74197e-07
2.6336e-07
3.84425e-07
4.00933e-07
4.15474e-07
4.42326e-07
6.37067e-07
6.16929e-07
5.97283e-07
6.18535e-07
7.89774e-08
6.84162e-08
4.04466e-13
-3.19741e-13
1.04528e-11
1.06661e-11
2.18429e-13
3.10796e-13
-4.82965e-12
-4.81119e-12
6.02553e-08
6.50878e-08
1.09713e-07
1.03096e-07
5.26653e-08
4.93392e-08
4.17149e-08
3.90623e-08
4.90685e-08
4.67901e-08
5.81548e-08
5.83901e-08
5.68127e-08
6.21745e-08
6.0293e-08
7.58186e-07
7.89602e-07
9.80944e-07
9.52781e-07
1.00691e-06
1.03528e-06
1.01496e-06
9.47244e-07
9.61343e-07
9.71486e-07
8.35795e-07
8.54266e-07
7.05819e-07
7.01701e-07
7.85976e-07
8.12684e-07
5.99328e-07
6.30033e-07
3.00154e-07
3.05404e-07
5.44362e-07
5.19618e-07
4.87194e-07
5.309e-07
8.02068e-07
7.88505e-07
1.11659e-06
1.13733e-06
1.11477e-06
1.10812e-06
1.16462e-06
1.13231e-06
1.27379e-06
1.24182e-06
5.17331e-07
5.19693e-07
5.90267e-07
5.61024e-07
7.8864e-07
8.22045e-07
9.44427e-07
9.13699e-07
1.06476e-06
1.09802e-06
5.93569e-07
6.23994e-07
6.21593e-07
3.75722e-07
3.56231e-07
3.8855e-07
5.16515e-07
4.98678e-07
4.60027e-07
4.4266e-07
4.43159e-07
4.10772e-07
7.52772e-07
7.96701e-07
6.13404e-07
6.44682e-07
1.22403e-06
1.26691e-06
1.19391e-06
1.17239e-06
1.22424e-06
1.19946e-06
1.24388e-06
1.26733e-06
7.5767e-07
7.48919e-07
7.338e-07
8.52936e-07
8.91583e-07
9.58854e-07
9.17997e-07
1.04205e-06
1.03807e-06
9.3566e-07
9.58644e-07
7.61602e-07
7.618e-07
7.92352e-07
8.10557e-07
1.30211e-07
1.24852e-07
1.24997e-07
1.29508e-07
1.64107e-07
1.60157e-07
2.49455e-07
2.37648e-07
3.13781e-07
3.56579e-07
3.7471e-07
2.76249e-07
2.64125e-07
2.38074e-07
2.53474e-07
3.16078e-07
2.95533e-07
3.60374e-07
3.86148e-07
4.39163e-07
4.44354e-07
3.18741e-07
3.06898e-07
3.86368e-07
3.74659e-07
4.64462e-07
4.49583e-07
5.60351e-07
5.80305e-07
5.18877e-07
5.06714e-07
5.35691e-07
5.40411e-07
7.19188e-07
7.23161e-07
7.23123e-07
7.19323e-07
6.22656e-07
6.07805e-07
6.00718e-07
3.68256e-07
3.68368e-07
4.63888e-07
4.9459e-07
3.81739e-07
4.07584e-07
1.43516e-09
1.42331e-09
1.40724e-09
1.40268e-09
2.53496e-09
2.53531e-09
3.35421e-09
3.35546e-09
1.29984e-08
1.42145e-08
1.14092e-08
1.25753e-08
6.97084e-09
7.71957e-09
3.67805e-09
3.3032e-09
3.00523e-09
2.9911e-09
1.05763e-09
1.06193e-09
6.95433e-10
6.85763e-10
1.26704e-09
1.27047e-09
1.6745e-10
1.48962e-10
4.0855e-10
4.02041e-10
3.70714e-10
3.3341e-10
5.54736e-10
6.1523e-10
5.16659e-10
5.73446e-10
1.76837e-10
1.56835e-10
2.84673e-10
3.19396e-10
2.30712e-10
2.596e-10
6.98425e-11
6.92706e-11
-5.10008e-12
-5.08988e-12
-5.37536e-12
-5.36584e-12
-5.35024e-12
-5.3479e-12
-5.31146e-12
-5.30516e-12
3.98163e-13
-2.3843e-13
1.95575e-11
2.28616e-11
-1.0062e-12
-1.02104e-12
-3.53524e-12
-3.54713e-12
7.52142e-07
7.86891e-07
7.85852e-07
5.54764e-07
5.19622e-07
7.68336e-07
7.32957e-07
7.92473e-07
8.46024e-07
3.81133e-08
3.40507e-08
8.77642e-07
8.36186e-07
2.12215e-07
2.02239e-07
2.5229e-07
2.41305e-07
4.88767e-07
4.54726e-07
5.37327e-07
5.1477e-07
5.26899e-07
5.41028e-07
1.2058e-07
1.34141e-07
5.85131e-08
5.92465e-08
-4.13885e-12
-4.15311e-12
2.2371e-11
2.26989e-11
8.65188e-12
8.4615e-12
1.08783e-11
1.10898e-11
-4.88605e-12
-4.86196e-12
-4.19867e-12
-4.16552e-12
2.1432e-07
2.28438e-07
1.20353e-08
1.24043e-08
3.21828e-08
3.37272e-08
1.7888e-07
1.91213e-07
8.58027e-08
9.13678e-08
4.23387e-08
4.50236e-08
5.21263e-08
4.96064e-08
5.02115e-08
5.26157e-08
6.05888e-08
5.79383e-08
5.51944e-08
2.20036e-07
9.70837e-07
9.3779e-07
1.09976e-06
1.06357e-06
8.89929e-07
8.71668e-07
8.32719e-07
8.68294e-07
7.35775e-07
7.39897e-07
6.61417e-07
6.93117e-07
6.48092e-07
6.75332e-07
2.77879e-07
2.77327e-07
2.59399e-07
3.40148e-07
3.28946e-07
6.28786e-07
6.01125e-07
4.46791e-07
4.31089e-07
8.74437e-07
8.98005e-07
8.90005e-07
8.71003e-07
1.03874e-06
1.0247e-06
1.13178e-06
1.22865e-06
1.19557e-06
1.1331e-06
1.11887e-06
5.79501e-07
5.52952e-07
5.04799e-07
5.1232e-07
6.30194e-07
6.61371e-07
9.1598e-07
8.85289e-07
7.49861e-07
7.62261e-07
7.88841e-07
6.5678e-07
6.8648e-07
5.75168e-07
6.07067e-07
4.72441e-07
4.99797e-07
4.95396e-07
5.895e-07
6.09465e-07
5.77395e-07
5.46708e-07
5.29397e-07
4.87389e-07
4.69776e-07
4.29487e-07
3.98972e-07
7.13129e-07
1.03772e-06
1.03105e-06
1.14789e-06
1.15577e-06
1.20932e-06
1.23074e-06
1.19692e-06
1.19582e-06
8.28101e-07
8.36936e-07
7.35168e-07
7.15818e-07
8.67189e-07
9.03582e-07
9.29979e-07
9.66784e-07
9.00953e-07
9.12546e-07
9.98761e-07
1.00196e-06
7.95731e-07
7.86704e-07
1.52888e-07
1.45972e-07
1.81237e-07
1.74027e-07
1.4074e-07
1.35516e-07
1.5131e-07
1.53916e-07
2.72036e-07
2.592e-07
2.76969e-07
2.90527e-07
3.19288e-07
3.01602e-07
2.98862e-07
3.13192e-07
3.26982e-07
3.50271e-07
3.44194e-07
3.41175e-07
3.18053e-07
3.08701e-07
4.23658e-07
4.37394e-07
4.58616e-07
4.39533e-07
5.28686e-07
5.35894e-07
4.88704e-07
4.77585e-07
5.75158e-07
5.70934e-07
6.85208e-07
6.81558e-07
6.44526e-07
6.47854e-07
6.53893e-07
6.37617e-07
3.66343e-07
3.62686e-07
3.44818e-07
3.45313e-07
4.25954e-07
4.34925e-07
1.5666e-09
1.58041e-09
2.30533e-09
2.30554e-09
2.78583e-09
3.05866e-09
5.80432e-09
6.37051e-09
4.11069e-09
4.22509e-09
1.52937e-08
1.56197e-08
1.38523e-08
1.37167e-08
1.02453e-08
9.28222e-09
8.47891e-09
8.40248e-09
5.63505e-09
6.2651e-09
3.35618e-09
3.73321e-09
2.71625e-10
2.43374e-10
1.17307e-09
1.16817e-09
1.43738e-09
1.29187e-09
1.41747e-09
1.41447e-09
1.02175e-09
1.01993e-09
9.10176e-10
2.54363e-10
2.85603e-10
3.2068e-10
3.59512e-10
4.16786e-10
3.73974e-10
3.36229e-10
5.47847e-10
6.07278e-10
6.2277e-10
6.29947e-10
4.68363e-10
4.66478e-10
4.15469e-10
3.69656e-10
1.94238e-10
2.17934e-10
2.81446e-10
3.14963e-10
2.2991e-10
2.58823e-10
7.84057e-11
8.85887e-11
1.33952e-10
1.34848e-10
-5.28518e-12
-5.31249e-12
-5.09959e-12
-5.16916e-12
-5.35121e-12
-5.35581e-12
-5.36442e-12
-5.35926e-12
-5.34068e-12
-5.33843e-12
-5.34531e-12
-5.34166e-12
4.12091e-13
-2.24349e-13
2.68368e-11
2.67185e-11
5.72897e-12
5.60776e-12
-2.07838e-12
-2.06634e-12
-1.61191e-12
-1.59734e-12
-4.73239e-12
-4.75113e-12
-5.0398e-12
-5.04372e-12
7.22531e-07
7.56724e-07
6.05447e-07
5.88797e-07
7.96513e-07
7.65429e-07
6.84725e-07
6.56231e-07
8.56912e-07
8.36037e-07
8.05621e-07
3.42387e-07
3.51124e-07
1.20395e-06
1.2488e-06
2.34486e-07
2.1649e-07
2.2415e-07
2.85842e-07
2.97557e-07
4.22033e-07
3.92001e-07
6.59359e-07
6.57122e-07
6.76528e-07
6.87883e-07
5.70979e-07
5.76279e-07
4.83961e-07
6.64296e-08
7.09975e-08
6.75171e-08
7.78976e-08
-9.85261e-13
-9.22066e-13
-4.37404e-12
-4.3751e-12
6.02462e-12
5.95052e-12
1.62509e-11
1.65207e-11
6.89035e-12
6.72009e-12
-4.86968e-12
-4.84355e-12
-4.33785e-12
-4.36901e-12
1.4592e-07
1.56895e-07
1.82303e-07
1.94664e-07
1.35396e-08
1.31466e-08
1.43915e-08
1.55017e-08
1.97319e-08
1.98794e-08
2.54349e-08
2.48111e-08
9.72198e-08
1.03372e-07
4.3857e-08
4.10193e-08
3.40301e-08
3.2071e-08
5.43538e-08
5.16598e-08
4.57463e-08
4.79343e-08
6.13877e-08
6.37212e-08
8.50942e-07
8.19122e-07
8.81117e-07
8.53181e-07
1.05768e-06
1.09445e-06
1.00342e-06
1.03495e-06
8.18779e-07
8.00525e-07
7.70719e-07
7.74879e-07
7.27266e-07
7.57055e-07
6.84044e-07
7.09327e-07
3.77479e-07
3.74013e-07
3.52562e-07
5.73019e-07
5.67843e-07
5.99527e-07
5.72259e-07
4.82694e-07
4.62228e-07
8.59668e-07
8.2585e-07
1.09618e-06
1.0585e-06
1.1844e-06
1.22076e-06
4.52126e-07
4.5856e-07
5.40609e-07
5.3251e-07
1.08043e-06
1.10962e-06
8.81547e-07
9.10803e-07
9.80817e-07
9.47948e-07
5.25029e-07
4.93311e-07
5.04407e-07
6.19952e-07
6.01095e-07
6.85214e-07
7.13023e-07
5.63585e-07
5.7424e-07
5.9413e-07
6.59824e-07
4.58676e-07
4.62482e-07
1.32716e-07
1.35385e-07
6.37263e-07
6.63157e-07
5.63244e-07
5.33565e-07
5.62902e-07
4.36001e-07
4.17911e-07
4.09838e-07
4.74073e-07
4.59601e-07
1.07368e-06
1.09665e-06
1.08878e-06
1.06915e-06
1.18573e-06
1.1935e-06
1.32955e-06
1.35731e-06
1.33184e-06
1.12064e-06
1.12103e-06
1.18978e-06
1.17846e-06
8.68632e-07
8.77316e-07
7.52783e-07
7.73604e-07
7.94193e-07
8.30245e-07
9.16622e-07
8.76538e-07
9.51537e-07
9.39021e-07
1.65573e-07
1.57743e-07
1.19467e-07
1.10824e-07
1.66912e-07
1.5987e-07
2.04601e-07
1.96269e-07
1.9933e-07
1.8351e-07
1.84492e-07
1.90632e-07
2.56473e-07
2.49534e-07
2.70275e-07
2.62646e-07
3.01323e-07
2.84925e-07
3.62828e-07
3.6661e-07
3.29751e-07
3.39835e-07
3.39754e-07
3.26869e-07
4.76336e-07
4.92445e-07
4.33168e-07
4.15459e-07
5.60865e-07
5.68948e-07
5.7619e-07
5.74105e-07
6.48018e-07
6.4482e-07
6.8706e-07
6.69131e-07
3.91318e-07
3.87478e-07
1.84904e-08
1.82997e-08
2.11084e-09
2.10056e-09
2.03813e-09
1.84698e-09
3.10862e-09
2.83094e-09
4.03664e-09
3.68569e-09
6.39027e-09
5.80088e-09
2.19898e-09
2.15798e-09
7.08025e-09
6.38717e-09
1.24014e-08
1.22116e-08
9.41669e-09
1.05295e-08
1.14988e-08
1.26721e-08
7.02032e-09
7.78357e-09
9.36936e-09
1.03436e-08
8.54137e-09
5.57893e-09
6.20347e-09
5.0676e-09
6.20211e-09
5.59693e-09
3.69204e-09
3.32376e-09
1.53634e-10
1.36842e-10
2.02757e-10
2.27531e-10
5.53286e-10
5.58829e-10
9.6215e-10
9.68277e-10
1.83377e-09
1.86998e-09
1.77861e-09
1.9779e-09
8.84294e-10
8.75109e-10
1.13988e-09
1.13786e-09
7.3443e-10
7.32676e-10
2.32857e-10
2.07529e-10
3.65336e-10
3.7295e-10
5.90177e-10
5.98942e-10
4.51909e-10
4.08007e-10
5.6753e-10
5.1146e-10
6.57282e-10
6.55418e-10
3.70524e-10
3.71299e-10
2.19827e-10
1.95844e-10
2.53517e-10
2.51091e-10
3.28707e-10
2.92327e-10
1.60626e-10
1.81196e-10
1.65853e-11
1.40258e-11
1.15911e-10
1.30406e-10
1.04854e-10
1.04332e-10
1.33135e-10
1.87143e-13
-5.30328e-13
-5.26153e-12
-5.24374e-12
-5.12549e-12
-5.05802e-12
-5.34365e-12
-5.33276e-12
-5.36506e-12
-5.35496e-12
-5.3729e-12
-5.37081e-12
-5.35454e-12
-5.35954e-12
-5.33889e-12
-5.34454e-12
-5.32723e-12
-5.33028e-12
-5.31568e-12
-5.31365e-12
1.2272e-10
1.37927e-10
6.60381e-12
6.56313e-12
1.16623e-12
1.18468e-12
2.82376e-12
1.82721e-12
-2.53285e-12
-2.52414e-12
-1.5832e-12
-1.5698e-12
-4.39077e-12
-4.40547e-12
-5.03998e-12
-5.05026e-12
-5.04752e-12
-5.04789e-12
1.86378e-07
1.91471e-07
5.44437e-07
5.75641e-07
5.55086e-07
6.40073e-07
6.21175e-07
6.74653e-07
6.59273e-07
6.48518e-07
7.41456e-07
9.44116e-07
2.19164e-07
2.05856e-07
5.53057e-07
5.31465e-07
1.16073e-06
1.17272e-06
7.95943e-07
8.26355e-07
2.42621e-07
2.52754e-07
4.43818e-07
4.64607e-07
3.61567e-07
3.88389e-07
6.67379e-07
6.37504e-07
6.73299e-07
6.21615e-07
6.38454e-07
6.47207e-07
6.1868e-07
3.81741e-07
4.0635e-07
4.10932e-07
2.65113e-08
2.6207e-08
1.12414e-07
1.24884e-07
1.11619e-08
1.25126e-08
2.51957e-11
2.51279e-11
-3.60629e-12
-3.46254e-12
-4.34702e-12
-4.3482e-12
3.33242e-12
4.56075e-12
5.56165e-11
5.50765e-11
1.37556e-11
1.35194e-11
1.32068e-11
1.34429e-11
2.95388e-12
3.07689e-12
-1.21448e-12
-1.13818e-12
-4.93753e-12
-4.93528e-12
-4.74471e-12
-4.71767e-12
-5.30516e-12
-5.29969e-12
2.20484e-07
2.3494e-07
2.07634e-07
2.21315e-07
3.14782e-08
2.90595e-08
2.47057e-08
2.25714e-08
1.85331e-08
1.78065e-08
1.88079e-08
2.65348e-08
2.72403e-08
1.40701e-07
1.31151e-07
6.76311e-08
6.3625e-08
4.61624e-08
4.31305e-08
3.64487e-08
3.4261e-08
3.38684e-08
3.57108e-08
7.37263e-08
7.01832e-08
5.03603e-08
4.7979e-08
5.28899e-08
5.05457e-08
2.06953e-07
2.07661e-07
8.82136e-07
8.47485e-07
8.50945e-07
8.20865e-07
1.03063e-06
1.02194e-06
1.06716e-06
1.10014e-06
7.83507e-07
7.65603e-07
8.78058e-07
8.83687e-07
7.23785e-07
6.90891e-07
2.48556e-07
2.51612e-07
3.7822e-07
5.43302e-07
1.1516e-06
1.17235e-06
4.84957e-07
4.77991e-07
1.13877e-06
8.83554e-07
8.52884e-07
9.50715e-07
9.17925e-07
7.00376e-07
7.21368e-07
6.78429e-07
7.06152e-07
7.2919e-07
7.31777e-07
5.31926e-07
4.91342e-07
4.982e-07
3.51605e-07
2.61608e-07
2.65494e-07
6.64804e-07
6.9526e-07
5.51502e-07
5.70677e-07
4.74827e-07
5.03864e-07
3.81614e-07
9.81576e-07
9.40356e-07
8.83069e-07
1.05684e-06
1.05202e-06
1.0607e-06
1.02796e-06
1.11022e-06
1.08252e-06
1.26717e-06
1.2681e-06
1.33386e-06
1.32048e-06
1.08169e-06
1.08134e-06
1.14192e-06
1.15288e-06
8.36352e-07
8.54858e-07
7.87954e-07
7.96931e-07
8.6264e-07
8.25424e-07
2.35557e-07
2.24455e-07
1.93134e-07
1.83269e-07
1.50058e-07
1.39137e-07
1.28918e-07
1.5928e-07
1.6529e-07
1.55621e-07
1.4185e-07
1.56769e-07
1.72679e-07
2.1667e-07
2.26809e-07
2.07253e-07
2.40321e-07
4.49457e-07
4.59632e-07
3.86553e-07
3.90795e-07
2.98596e-07
2.87774e-07
5.03828e-07
5.21223e-07
5.4189e-07
5.40358e-07
6.32265e-07
6.38741e-07
1.22212e-08
1.13054e-08
4.33016e-08
4.2718e-08
4.82342e-10
5.36712e-10
8.84974e-09
9.76244e-09
6.51054e-09
5.95784e-09
2.32372e-09
2.34223e-09
4.09449e-09
3.73836e-09
3.05775e-09
2.78526e-09
3.36318e-09
9.09479e-09
9.8473e-09
2.66056e-09
2.71574e-09
2.34798e-09
2.11612e-09
6.62945e-09
7.24844e-09
1.2624e-08
1.37989e-08
1.41517e-08
1.38779e-08
1.40672e-08
1.4024e-08
1.52543e-08
1.67954e-08
1.39567e-08
8.58948e-09
8.62319e-09
9.44129e-09
1.04248e-08
5.50667e-09
6.12159e-09
5.12295e-09
5.10246e-09
2.42986e-09
2.70616e-09
3.34101e-09
3.71298e-09
1.89975e-10
1.69975e-10
2.25212e-10
2.00785e-10
4.8903e-10
4.4316e-10
5.48468e-10
1.57725e-09
1.57011e-09
7.83756e-10
7.05685e-10
1.32926e-09
1.31104e-09
1.57266e-09
1.54567e-09
1.57978e-09
1.5761e-09
1.24532e-09
1.25438e-09
1.0222e-09
1.14034e-09
8.20166e-10
8.18478e-10
7.35472e-10
1.60216e-10
1.79903e-10
2.89034e-10
2.5705e-10
5.40538e-10
4.88588e-10
3.29535e-10
3.65959e-10
5.00517e-10
4.94757e-10
5.91026e-10
6.56555e-10
5.25101e-10
5.23088e-10
4.7059e-10
1.75522e-10
1.55715e-10
2.75544e-10
3.0769e-10
2.48675e-10
2.92163e-10
3.28968e-10
1.58928e-10
1.79281e-10
2.0419e-10
1.21025e-10
1.20563e-10
1.14892e-10
1.29271e-10
1.1734e-10
1.16741e-10
1.04051e-10
1.17843e-10
4.96647e-12
3.71077e-12
-4.49858e-12
-4.50118e-12
-5.30813e-12
-5.31042e-12
-5.3232e-12
-5.11779e-12
-5.05024e-12
-5.22641e-12
-5.27214e-12
-5.33054e-12
-5.30279e-12
-5.33981e-12
-5.34586e-12
-5.36734e-12
-5.36492e-12
-5.34928e-12
-5.35411e-12
-5.34967e-12
-5.35427e-12
-5.34262e-12
-5.34675e-12
-5.33468e-12
-5.33804e-12
-5.2906e-12
-5.28729e-12
5.85912e-11
5.15786e-11
3.54689e-11
3.08315e-11
5.31738e-12
5.28483e-12
9.93168e-12
9.93713e-12
2.06078e-11
2.37644e-11
4.26631e-12
4.35712e-12
1.06568e-12
1.02563e-12
-1.7935e-12
-1.337e-12
-2.51451e-12
-2.50386e-12
-3.25444e-12
-3.26512e-12
-4.42068e-12
-4.4379e-12
-5.19095e-12
-5.18149e-12
-5.05119e-12
-5.05526e-12
-5.05251e-12
1.32213e-07
1.22962e-07
1.06104e-06
1.01707e-06
6.11897e-07
6.34524e-07
6.00536e-07
5.32887e-07
6.27362e-07
6.3664e-07
7.38465e-07
6.9642e-07
6.66786e-07
6.95873e-07
3.76892e-08
3.36908e-08
3.80412e-07
3.70849e-07
8.28935e-07
7.8657e-07
1.10963e-06
1.11371e-06
1.21321e-06
1.25361e-06
1.07755e-06
1.09942e-06
8.99959e-07
8.8267e-07
2.86163e-07
3.11609e-07
4.21523e-07
4.39823e-07
3.64566e-07
3.49344e-07
3.3528e-07
6.53305e-07
6.15938e-07
6.21369e-07
7.9451e-07
8.39632e-07
5.92411e-07
6.06805e-07
5.59327e-07
8.83071e-07
9.23468e-07
9.26444e-07
5.51068e-08
5.82387e-08
6.20806e-08
1.05148e-07
9.11419e-08
3.60178e-09
3.70037e-09
6.3616e-10
6.26198e-10
6.13582e-12
6.21e-12
-3.85787e-12
-3.6873e-12
-3.64013e-12
-3.49769e-12
-4.32048e-12
-4.32178e-12
-4.28041e-12
-4.31553e-12
4.6266e-12
3.39093e-12
4.68016e-11
4.74166e-11
1.13371e-11
1.11299e-11
9.61204e-12
9.41252e-12
1.58666e-11
1.61314e-11
3.72977e-12
3.59325e-12
1.00937e-12
1.11094e-12
-4.65446e-12
-4.62327e-12
-4.9444e-12
-4.94081e-12
-5.01169e-12
-5.0093e-12
-4.55406e-12
-4.52513e-12
-4.75491e-12
-4.73182e-12
-5.07756e-12
-5.08819e-12
-5.31423e-12
-5.31131e-12
1.93367e-07
2.06659e-07
1.88033e-07
1.76185e-07
3.01221e-08
3.26545e-08
2.20195e-08
2.40852e-08
3.65662e-08
3.83951e-08
2.17009e-08
2.08592e-08
2.81202e-08
2.91667e-08
8.7014e-08
8.04339e-08
1.01323e-07
1.06913e-07
4.86157e-08
4.5376e-08
4.682e-08
4.99176e-08
3.51227e-08
3.3059e-08
3.76074e-08
3.95561e-08
6.90315e-08
7.21192e-08
5.70225e-08
5.41212e-08
5.53423e-08
5.2815e-08
4.82607e-08
4.60456e-08
1.75294e-07
1.65894e-07
9.28785e-07
9.39691e-07
9.07787e-07
8.20512e-07
7.89141e-07
9.96506e-07
9.8611e-07
7.97153e-07
2.41244e-07
1.87194e-07
1.96236e-07
1.08227e-06
1.089e-06
1.10935e-06
8.53465e-07
8.21363e-07
5.53671e-07
5.8041e-07
8.13966e-07
7.80612e-07
7.67158e-07
6.36685e-07
4.46077e-07
2.40525e-07
2.41578e-07
3.52468e-07
3.27213e-07
3.25003e-07
6.28078e-07
5.96651e-07
4.89803e-07
5.05802e-07
8.68818e-07
8.38135e-07
8.25489e-07
9.98942e-07
9.85921e-07
1.1321e-06
1.17932e-06
1.08515e-06
1.09885e-06
1.07491e-06
1.0476e-06
1.232e-06
1.23319e-06
1.28543e-06
1.29742e-06
1.0671e-06
1.07696e-06
1.15868e-06
1.1595e-06
8.14238e-07
7.95634e-07
1.73542e-07
1.81649e-07
1.73695e-07
1.61604e-07
1.34986e-07
1.41073e-07
1.88601e-07
1.71259e-07
1.68997e-07
1.66545e-07
2.47096e-07
4.31799e-07
4.22452e-07
4.67702e-07
4.73476e-07
3.51699e-07
3.62546e-07
6.11072e-07
6.07348e-07
6.4741e-08
6.89631e-08
1.27453e-07
1.26087e-07
4.01992e-08
3.99052e-08
6.36277e-10
6.28451e-10
6.00489e-10
5.95732e-10
9.4548e-09
1.03743e-08
4.04247e-09
3.68943e-09
4.21298e-09
4.63056e-09
8.5411e-09
9.23257e-09
1.90299e-09
1.90285e-09
2.54171e-09
2.31148e-09
3.3818e-09
3.4106e-09
3.06602e-09
2.79278e-09
8.89197e-09
9.61693e-09
2.95244e-09
3.01633e-09
2.39653e-09
2.44411e-09
4.17862e-09
4.59167e-09
1.18258e-08
1.29252e-08
1.22286e-08
1.33656e-08
1.36189e-08
1.49595e-08
1.07652e-08
9.61439e-09
1.59382e-08
1.62428e-08
1.40285e-08
1.40662e-08
1.66259e-08
1.51029e-08
7.75895e-09
7.00275e-09
5.01761e-09
4.95392e-09
5.69084e-09
6.31512e-09
2.70999e-09
2.43409e-09
3.35196e-09
3.7269e-09
1.54689e-10
1.37743e-10
1.51749e-10
1.35299e-10
2.22806e-10
1.98787e-10
4.97897e-10
5.02348e-10
7.56804e-10
7.66103e-10
1.42338e-09
1.42969e-09
1.22099e-09
1.10379e-09
1.43888e-09
1.41423e-09
1.45945e-09
1.48039e-09
1.90642e-09
1.94255e-09
2.14412e-09
2.16039e-09
7.94663e-10
7.8665e-10
1.00918e-09
1.00232e-09
1.02118e-09
1.01868e-09
1.27191e-09
1.27137e-09
7.35737e-10
7.35066e-10
9.15577e-10
9.13884e-10
2.66152e-10
2.97156e-10
1.81612e-10
1.61737e-10
2.92329e-10
2.59539e-10
5.55579e-10
5.63443e-10
4.61006e-10
4.1539e-10
3.67954e-10
3.31079e-10
3.39412e-10
3.77571e-10
5.88039e-10
6.53064e-10
5.87804e-10
5.85814e-10
1.78118e-10
1.57923e-10
2.72898e-10
3.04605e-10
2.27347e-10
2.55763e-10
2.91529e-10
3.28766e-10
2.01999e-10
2.03199e-10
1.64923e-11
1.3934e-11
7.15428e-11
6.3123e-11
1.03066e-10
1.02105e-10
9.21348e-11
9.24639e-11
1.1839e-10
1.19087e-10
2.18998e-13
-5.03201e-13
-4.94059e-12
-5.03587e-12
-5.32794e-12
-5.33498e-12
-5.17301e-12
-5.1249e-12
-5.15706e-12
-5.1473e-12
-5.21977e-12
-5.17387e-12
-5.24768e-12
-5.20185e-12
-5.26659e-12
-5.22024e-12
-5.32496e-12
-5.297e-12
-5.36077e-12
-5.37057e-12
-5.36033e-12
-5.35785e-12
-5.34349e-12
-5.34815e-12
-5.32994e-12
-5.3245e-12
-5.31935e-12
-5.32207e-12
-5.29269e-12
-5.29087e-12
-5.27582e-12
-5.27415e-12
7.38485e-11
7.34115e-11
5.13957e-11
5.8371e-11
3.09247e-11
3.553e-11
5.25502e-12
5.22365e-12
1.64338e-11
1.65604e-11
2.09171e-11
2.40104e-11
3.07656e-12
3.14045e-12
4.09918e-12
5.39813e-12
-4.48855e-13
2.60385e-13
9.85118e-13
9.44448e-13
-2.0902e-12
-2.10173e-12
-3.78047e-12
-3.76821e-12
-4.58879e-12
-4.5709e-12
-5.18219e-12
-5.14944e-12
-4.79779e-12
-4.78929e-12
-5.06765e-12
-5.07497e-12
-5.05472e-12
1.14223e-07
1.06747e-07
2.24137e-07
2.03946e-07
9.91495e-07
9.47841e-07
4.9626e-07
5.0136e-07
6.91908e-07
6.57291e-07
5.84063e-07
5.66748e-07
7.71785e-07
7.87041e-07
8.17034e-07
8.06249e-07
7.13513e-07
7.40662e-07
9.54818e-07
1.00579e-06
1.2254e-07
1.16122e-07
1.76958e-07
1.84292e-07
4.1159e-07
4.28842e-07
5.34868e-07
4.99601e-07
8.0837e-07
8.51314e-07
1.07187e-06
1.06987e-06
1.07445e-06
1.09036e-06
1.21695e-06
1.25411e-06
1.06242e-06
1.02976e-06
1.23274e-06
1.20961e-06
9.41511e-07
9.3207e-07
3.54484e-07
3.34857e-07
3.39984e-07
4.16973e-07
3.76658e-07
4.05163e-07
5.14164e-07
5.51923e-07
6.54682e-07
6.86882e-07
7.15313e-07
7.49145e-07
7.81038e-07
7.27297e-07
4.31073e-07
4.45436e-07
4.09366e-07
7.22645e-07
7.24362e-07
4.41131e-07
4.50602e-07
4.83368e-08
5.16732e-08
5.46821e-08
5.81481e-08
1.08247e-07
1.00866e-07
6.59617e-08
7.59873e-08
3.8007e-08
3.84018e-08
1.07908e-08
1.17021e-08