/*--------------------------------*- C++ -*----------------------------------*\
  =========                 |
  \\      /  F ield         | OpenFOAM: The Open Source CFD Toolbox
   \\    /   O peration     | Website:  https://openfoam.org
    \\  /    A nd           | Version:  7
     \\/     M anipulation  |
\*---------------------------------------------------------------------------*/
FoamFile
{
    version     2.0;
    format      ascii;
    class       volScalarField;
    location    "720";
    object      T;
}
// * * * * * * * * * * * * * * * * * * * * * * * * * * * * * * * * * * * * * //

dimensions      [0 0 0 1 0 0 0];

internalField   nonuniform List<scalar> 
238806
(
0.987443
0.995105
0.926663
1.26125
1.12139
1.00292
0.993397
0.986049
0.98531
0.947604
0.97109
1.13091
0.998577
0.996277
1.15305
1.13987
0.963095
0.959
0.986762
1.00045
0.987846
0.984728
1.08672
0.963801
1.11603
0.927735
0.941711
0.96181
1.02876
1.11841
0.999406
0.999498
0.976597
0.985533
0.998226
0.998262
0.709707
0.703894
0.97589
1.0094
1.00298
1.20897
0.996478
0.996444
0.999026
0.985735
0.954056
0.950225
0.986731
0.981031
0.998346
0.999567
0.998415
0.995614
0.99042
0.992303
0.940109
0.920561
0.962369
0.923226
0.940999
0.976941
0.962269
0.976181
0.978949
0.999656
0.998148
0.986248
0.989669
0.9933
0.992482
0.985712
0.984838
0.979487
0.984264
1.00135
0.991077
1.00009
1.00019
0.982987
0.985423
0.984393
0.983245
0.985145
0.982201
0.986567
0.987853
0.961282
0.988258
0.967951
0.963054
0.988575
0.985939
0.98601
0.978257
0.999976
1.00023
0.966937
0.950854
1.21704
0.985375
0.991295
0.98672
0.998378
1.00191
0.980889
0.978887
0.978376
0.97994
0.986808
0.981914
0.983337
0.990819
0.999856
0.998261
0.99852
0.998811
0.605479
0.479558
0.524198
0.970881
1.03524
0.981395
0.983957
1.00327
0.99338
1.0764
1.109
0.961766
1.05724
0.99885
0.9302
0.943403
1.22653
0.928095
0.9574
0.983976
0.983787
0.895731
1.09034
1.03496
1.1458
0.981503
0.980047
0.971735
0.989353
0.986084
0.987845
0.992417
0.989934
0.985484
0.993173
0.987757
0.97985
0.982141
0.980343
0.978499
0.983826
0.985664
0.98863
0.985747
1.00123
0.993504
0.997067
0.994428
0.997137
0.997173
0.993847
0.991794
0.837929
0.834138
0.983752
0.982866
0.981806
0.966779
0.87915
0.981606
0.985051
0.997992
0.992081
1.06696
1.09925
1.3315
0.940836
0.924861
0.95101
0.907481
1.07216
0.985679
0.986686
0.998803
0.998887
0.966918
1.00513
0.94838
0.935123
0.954404
1.11003
1.25516
1.02978
1.14755
0.98348
0.981897
0.986503
0.983835
0.985981
0.985326
0.981294
0.980846
0.985847
0.990883
0.944559
0.94939
0.982896
0.983848
0.983611
0.984965
0.955233
0.967821
0.981722
0.978571
0.989913
0.985571
0.984823
1.00009
0.994289
0.996907
0.998557
0.998578
0.996145
0.996272
0.981886
0.9821
0.989519
0.989837
0.9712
0.970671
0.983458
0.983038
0.969241
0.999831
0.962699
0.904742
0.9809
0.980514
0.982143
0.988649
0.990629
0.996629
0.990769
0.990772
0.979684
0.981507
0.973574
0.965314
0.964594
0.985462
0.989332
0.999509
0.978046
0.980122
0.998262
0.998887
1.00063
0.99937
0.974605
0.972231
0.984295
0.983047
0.952539
0.950085
0.971479
1.02174
0.947002
1.18978
1.05335
0.981678
0.982958
0.987557
0.985843
0.98655
0.990396
0.984267
0.98176
0.998776
0.998732
0.998408
0.995872
0.977844
0.981007
0.949052
0.953082
0.981778
0.983374
0.983736
0.979927
0.983021
0.976155
0.973432
0.961712
0.981712
0.984762
1.00129
0.999863
0.981286
0.979226
1.00025
0.998454
1.00116
0.988174
0.997255
0.998352
0.997134
0.998529
0.992482
0.993209
0.94608
0.946093
0.995501
0.995631
0.992727
0.992533
0.985109
0.982681
0.986374
0.985872
0.97025
0.970807
0.544189
0.984378
0.985577
1.05017
1.04107
0.948477
0.947583
0.990652
0.990558
0.914795
0.914427
1.01861
0.950361
1.00337
0.993691
0.99117
0.997296
0.990494
0.988762
1.13675
1.16648
1.00181
1.19005
1.05024
1.04696
0.932274
1.02717
1.00173
1.00042
0.992057
0.996431
0.996434
1.00047
0.99975
0.975847
0.984737
0.971657
0.968787
1.06972
1.01014
1.08657
0.997698
0.997789
0.981582
0.974986
1.33085
1.06283
1.02159
1.04149
0.982601
0.984872
0.990928
0.97924
0.999727
0.997142
0.985469
0.974963
0.9861
0.97556
0.97833
0.977783
0.977282
0.977792
1.00185
0.997987
0.997697
0.993153
0.998738
0.998706
0.991681
0.986343
0.989842
0.989371
0.946054
0.944847
0.982629
0.98547
0.980624
0.982495
0.984306
0.9825
0.972683
0.96321
0.952446
0.950724
0.980054
0.983162
0.999707
0.998966
0.983136
0.979958
0.998344
1.0001
0.993855
0.992323
0.999933
1
0.99715
0.998491
0.991843
0.974481
0.974713
0.996288
0.996399
0.99433
0.994197
0.995801
0.995927
0.981052
0.980844
0.971663
0.97214
0.986607
0.986245
0.941076
0.929738
0.983277
0.983701
0.979149
0.985835
0.978844
0.973828
0.977847
0.793806
1.01462
1.00229
1.06431
0.990864
0.99278
0.980273
0.980445
0.920481
0.921591
0.844794
0.552732
1.08241
0.98098
0.930424
1.02179
0.989952
0.990611
1.00183
0.992595
0.99114
0.982829
0.975732
0.986734
0.97665
0.93654
1.09593
1.18865
0.907679
1.12888
0.945906
0.985607
0.976912
0.9883
0.983506
0.988739
0.988765
1.00068
0.999044
0.997238
0.997649
1.00013
1.00033
0.993587
0.989365
0.975676
0.973847
1.13057
0.957551
0.955931
0.96692
1.01968
1.17954
1.06273
1.14788
0.979628
1.00583
0.983083
0.983339
0.984354
0.993783
0.981936
0.983616
0.985097
0.984811
0.98615
0.986438
0.985998
0.988396
0.979711
0.981335
0.983098
0.983651
0.998411
0.997949
0.99875
0.998759
0.988301
0.985507
0.998663
0.998648
0.996323
0.998499
0.988631
0.993869
0.950587
0.947486
1.04149
1.05121
0.979809
0.982574
0.978454
0.980074
0.979714
0.978373
0.983444
0.98112
0.983905
0.983741
0.978232
0.970015
0.958166
0.951627
0.978393
0.979372
0.978946
0.981458
0.999134
1.00048
0.99147
0.995137
0.98469
0.981041
0.979679
0.978107
1.00047
0.998843
0.998401
0.998584
0.987928
0.990974
0.990381
0.991281
0.998199
0.998176
0.994036
0.994816
0.851367
0.848807
0.923633
0.92569
0.995828
0.995917
0.993561
0.991491
0.992831
0.993033
0.964052
0.963852
0.962446
0.961341
0.989589
0.988989
0.986735
0.987088
0.898279
0.896606
0.794172
0.789709
0.975326
0.977876
0.969592
0.969308
0.98828
0.995025
0.995894
1.03292
0.97534
0.973532
0.982178
0.976494
0.98345
0.971161
1.04766
1.01987
0.984864
0.989494
0.849922
0.850657
0.979453
0.977809
0.980427
0.979981
0.7191
0.721762
0.893421
0.771199
0.562692
0.552671
1.01144
0.967485
0.974769
0.975981
0.990275
0.990692
0.993245
0.992567
1.00205
0.992933
0.980986
0.979978
0.978581
0.983487
1.11064
1.08467
0.993214
0.990121
0.970147
0.950612
0.948526
0.957935
1.15836
0.98495
0.97588
1.01088
1.01493
0.990822
0.984577
0.983658
0.983997
1.00068
0.998881
0.993255
0.993757
1.00057
0.999547
0.981538
0.977817
0.996672
0.999029
0.979032
1.04162
0.9443
1.20875
0.958329
0.970743
0.974495
0.853927
1.06051
0.995456
0.990979
0.960506
0.964846
1.19351
1.17733
0.981032
0.982022
0.978669
0.98743
0.997333
0.999679
0.983479
0.969726
0.989053
0.9814
0.992154
0.982597
0.978333
0.981124
0.981021
0.997972
0.998199
0.997261
0.995892
0.994112
0.998024
0.98442
0.993966
0.996887
0.998543
0.998699
0.998723
0.99166
0.990698
0.975634
0.970756
0.95055
0.95451
0.977689
1.00005
0.950762
0.954845
0.979961
0.978407
0.98073
0.98363
0.978267
0.979332
0.978164
0.978867
0.984392
0.982577
0.981953
0.975868
0.965877
0.956693
0.978807
0.978656
0.999657
0.999813
0.989361
0.986617
0.989885
0.987948
0.9795
0.979202
1.00101
0.995398
0.998355
1.00063
0.996532
0.991365
0.987845
0.999935
0.99922
0.998167
0.99987
0.996103
0.995083
0.998056
0.997601
0.980084
0.979423
0.745376
0.775575
0.773589
0.77241
0.987307
0.989808
0.994901
0.994798
0.994605
0.994749
0.996107
0.996258
0.979327
0.979181
0.965158
0.963425
0.992389
0.991769
0.966532
0.966869
0.978759
0.979108
0.986955
0.98723
0.987303
0.98696
0.93165
0.932759
0.914572
0.916315
0.893387
0.89182
0.505021
0.496365
0.919278
0.917325
0.977298
0.974739
0.491081
0.50309
0.539602
0.983049
0.993322
0.973927
0.95517
1.02443
1.0058
1.0059
1.01259
1.05452
0.974022
0.972261
0.984721
0.984039
0.979996
0.983554
0.976032
0.960602
0.957742
0.977805
0.998683
0.998567
0.95902
0.958196
0.98369
0.988329
0.987552
0.989188
0.90716
0.885262
0.990659
0.990657
0.980007
0.980128
0.978504
0.978222
0.97956
0.979142
0.912284
0.911803
0.962442
0.946823
0.95076
0.939238
0.931293
0.99166
0.994772
1.01768
0.911419
1.00317
1.00358
0.994186
0.985659
0.989941
0.992278
0.991622
0.989372
0.992345
1.001
0.979083
0.985355
0.983434
0.981674
0.953375
1.01961
0.983857
0.981866
0.944002
0.964412
0.970185
1.05587
0.976574
0.985474
0.904619
1.06315
0.99636
0.993922
0.988829
0.989379
1.00067
0.999199
0.994225
0.994704
0.9768
0.981973
0.985489
0.982906
0.971176
0.971814
0.999523
0.963529
0.958846
1.11901
1.22182
1.00373
0.973655
0.980807
0.957223
0.960095
1.01556
1.07958
0.946225
0.935633
0.988042
0.982126
0.967543
0.971021
0.981831
0.982726
0.98242
1.00488
0.986224
0.986852
1.0014
0.99934
0.985889
0.98223
0.981548
1.00181
1.0018
0.998484
0.998884
0.986098
0.989268
0.998648
0.998607
0.987138
0.992548
0.952747
0.956701
0.944986
0.943766
0.990768
0.967575
0.951349
0.949905
0.9631
0.979023
0.981451
0.986244
0.983517
0.980808
0.978913
0.98408
0.984707
0.969327
0.978993
0.999057
1.00049
0.990894
0.988159
0.996072
0.992332
0.992898
0.989863
0.987007
0.989553
1.00075
0.996838
0.99733
0.998607
1.00124
0.998549
0.998633
0.998557
0.992711
0.989934
0.996267
0.998182
0.999826
0.999897
1.00003
0.999082
0.999381
0.951745
0.922479
0.742673
0.773083
0.931636
0.945687
0.927457
0.946028
0.984613
0.984837
0.995249
0.995353
0.994863
0.995017
0.995095
0.994864
0.993229
0.992917
0.952031
0.959541
0.964701
0.962788
0.993002
0.9924
0.967136
0.966646
0.962322
0.959559
0.977613
0.977193
0.976251
0.976629
0.983819
0.984127
0.987694
0.98736
0.989916
0.990194
0.98743
0.987761
0.974413
0.970477
0.928215
0.939812
0.853835
0.856017
0.542268
0.533765
0.938351
0.939557
0.946433
0.945815
0.972554
0.97316
0.968188
0.96931
0.966069
0.96663
0.996816
0.992982
0.980969
0.980435
0.981768
1.01311
1.01247
0.984161
0.946957
1.00368
1.00377
0.985831
0.985033
0.968587
0.970071
0.971919
0.973505
0.979662
0.972566
1.03489
1.0928
0.990745
1.08612
0.985048
0.984697
0.996278
0.998443
0.865073
0.861732
0.992893
0.99496
0.987928
0.983295
0.991288
0.993241
0.922318
0.93336
0.949643
0.939955
0.99103
0.991357
0.985838
0.987148
0.981054
0.982977
0.991443
0.991687
0.979281
0.979168
0.981272
0.981655
0.945216
0.947048
0.734896
0.7474
0.922746
0.923568
0.942936
1.06905
0.973757
0.97506
0.999224
0.996745
0.989407
0.991423
0.995019
0.994141
1.00133
0.992376
0.986114
0.980793
0.97835
0.98989
1.00909
0.969044
1.00599
0.971636
0.934202
0.99498
0.988441
0.962756
0.976843
1.23535
1.00252
0.954084
0.992646
0.907116
1.06772
1.01891
0.996871
0.99652
0.991123
0.982638
0.989748
0.990819
0.99557
0.998323
0.996802
0.996284
0.984071
0.977446
1.00179
0.973618
0.972921
0.979703
0.952034
0.971884
0.961399
0.934429
0.987879
0.904394
0.978739
0.993189
0.994391
0.986943
0.987403
0.962962
0.969405
0.968623
1.01956
0.967373
0.944173
1.05409
0.996045
0.999366
0.982048
0.981199
1.00187
0.99722
0.998835
1.00169
0.999117
0.997499
0.98061
0.981244
0.981515
0.980913
0.995412
0.998349
0.998837
0.998665
0.9985
0.996593
0.966056
0.970626
0.948651
0.951729
0.946389
0.949162
1.02627
1.06357
0.949637
0.954154
0.966937
0.985259
0.978385
0.978959
0.981698
0.984605
0.980806
0.984808
1.00037
0.999503
0.997812
0.994862
0.990644
0.994078
0.985965
0.982336
0.99872
1.00043
1.0005
0.997848
0.998627
0.997705
0.998474
1.00104
0.998609
0.998705
0.98939
0.988637
0.998411
0.997223
0.998221
0.999817
0.996922
0.999651
0.923941
0.952611
0.932698
0.945527
0.945828
0.945938
0.945404
0.944883
0.971997
0.974503
0.991155
0.993889
0.995452
0.995003
0.994688
0.994574
0.994885
0.994455
0.995949
0.996145
0.994042
0.994203
0.972013
0.972006
0.95979
0.952217
0.979565
0.979209
0.99175
0.991462
0.991041
0.990745
0.992793
0.956758
0.957529
0.958265
0.958946
0.963222
0.980283
0.979933
0.972963
0.973354
0.979445
0.98193
0.989255
0.988874
0.988581
0.988278
0.980924
0.981269
0.988923
0.989183
0.988132
0.988452
0.949001
0.949774
0.973824
0.976991
0.950652
0.949411
0.905032
0.903371
0.858214
0.894984
0.557013
0.552015
0.644166
0.637754
0.868459
0.866504
0.952592
0.952095
0.97722
0.977295
0.974715
0.973978
0.967588
0.966421
0.968559
0.968781
0.959733
0.960841
0.619298
0.48869
0.974559
0.967392
1.00404
0.984989
0.938897
0.964391
1.03186
0.97061
0.996967
0.949924
1.01429
0.992704
0.999356
0.984899
0.984351
0.978688
0.99274
0.957525
0.973454
0.972342
0.975464
0.97455
1.21063
0.979647
1.02114
0.979084
1.01925
1.21874
1.12802
0.966492
0.964419
0.996374
0.996458
0.973043
0.969305
0.949464
0.947945
0.974081
0.974366
0.94519
0.952182
0.987506
0.982877
0.923372
0.935244
0.938905
0.948735
0.994898
0.994535
0.991023
0.991184
0.987231
0.985939
0.753226
0.755571
0.799639
0.751628
0.970589
0.954836
0.979085
0.979036
0.97863
0.978323
0.954861
0.955275
0.962865
0.964531
0.724509
0.728887
0.917012
0.91822
0.976743
0.977927
1.00282
0.982446
0.99219
0.992541
0.99289
0.994659
0.989622
0.991481
1.00161
0.99244
0.995524
0.983549
0.984807
0.989182
0.933251
0.951014
0.952853
0.979692
0.980991
0.997681
0.988567
0.984119
0.990692
0.94357
0.953993
1.02047
1.01964
0.993421
1.00108
0.996332
0.99885
0.997999
0.995143
0.994213
0.996275
0.992684
0.985741
0.977324
0.981072
0.982072
1.00758
0.964545
0.988925
0.984055
1.00096
0.996429
0.984312
0.96412
0.985578
1.0154
1.1033
1.11393
0.986965
1.00946
0.987134
0.987351
0.983388
0.963714
0.972758
0.960308
0.941175
0.961062
0.985705
0.965657
1.14966
0.945216
0.971624
0.954438
0.996788
0.999632
1.00185
1.00267
0.997384
0.997945
1.00193
0.999531
0.995568
0.998393
1.00173
0.987488
0.999269
0.978624
0.979475
0.98609
0.988118
0.998181
0.994773
0.973172
0.976918
0.960801
0.954066
0.956036
0.961039
0.962341
0.948992
1.03464
0.997686
1.06304
1.05734
0.963564
1.03111
1.00478
0.958932
0.978738
0.978408
0.999353
1.00042
0.994147
0.997695
0.99013
0.987425
0.989228
0.991762
0.986957
0.983568
0.99859
1.00037
0.998332
1.00046
0.998445
1.00084
0.989514
0.989162
0.998451
0.997178
0.995712
0.995285
0.96113
0.953012
0.95907
0.95812
0.827233
0.820106
0.814345
0.819874
0.904561
0.910067
0.980947
0.977977
0.986252
0.986031
0.988531
0.986706
0.994476
0.994779
0.995585
0.99571
0.995512
0.995624
0.995014
0.995135
0.995167
0.99496
0.995231
0.995747
0.994059
0.993916
0.993274
0.993099
0.719419
0.716417
0.981443
0.981667
0.98248
0.983345
0.778902
0.76163
0.969307
0.971584
0.980264
0.980608
0.987769
0.985382
0.991283
0.990991
0.99029
0.989976
0.962468
0.961967
0.961887
0.96292
0.967229
0.9701
0.975452
0.974997
0.981611
0.981287
0.990034
0.989709
0.988704
0.989353
0.983899
0.98357
0.989625
0.988638
0.987962
0.987638
0.987116
0.987463
0.972319
0.971929
0.959466
0.959984
0.976057
0.972701
0.970092
0.974076
0.973497
0.954405
0.955299
0.880306
0.883332
0.803328
0.795526
0.585307
0.592019
0.573038
0.578991
0.515034
0.520184
0.796551
0.64754
0.907461
0.908907
0.90323
0.900953
0.980889
0.981316
0.975833
0.974185
0.971734
0.970649
0.97271
0.972221
0.967001
0.967099
0.96846
0.967315
0.958467
0.95982
0.947651
0.950546
0.485967
0.493816
0.990739
0.991396
0.999609
0.991531
0.968624
0.975149
0.978165
1.00055
0.97345
1.02501
0.974153
0.977386
0.984439
0.984653
0.980263
0.981645
0.985075
0.979197
0.984329
0.983346
0.974654
0.976312
0.983831
0.983623
0.973507
0.975997
0.972654
0.98188
0.980079
1.0127
0.98922
1.00233
1.10684
0.992393
0.975506
0.973155
0.889026
0.84668
0.979727
0.978068
0.980919
0.980665
0.981862
0.983344
0.945482
0.946413
0.947604
0.94613
0.973008
0.973695
0.886554
0.788402
0.951351
0.944375
0.991704
0.993688
0.989036
0.990804
0.934434
0.941725
0.897237
0.895848
0.945833
0.935608
0.948306
0.947095
0.991519
0.990759
0.991236
0.991266
0.989312
0.989251
0.992401
0.992315
0.776983
0.766994
0.757756
0.955349
0.970808
0.99113
0.99109
0.979879
0.979491
0.977979
0.977738
0.978336
0.97835
0.713586
0.714437
0.975839
0.977723
0.926035
0.926967
0.935381
0.928151
1.0783
1.03826
0.981502
0.983706
0.996335
0.990944
0.989915
0.990849
0.998412
0.999407
0.990058
0.991252
1.00241
0.993423
0.981085
0.981496
1.09849
1.05613
0.938925
0.994691
0.976554
0.985221
0.998605
0.995972
0.999556
0.982553
0.982459
0.984102
0.974687
0.967184
1.10102
1.12871
0.974894
0.965456
0.964668
0.984149
1.07665
1.03278
1.12427
1.08577
1.05255
0.98668
0.986215
0.95949
0.954965
0.952904
0.957348
0.962622
0.986397
0.983602
1.06755
0.975815
0.976627
0.98149
0.987564
0.981815
0.985218
0.996845
1.00199
0.997546
0.993181
0.998209
1.00193
0.99632
0.99933
0.989191
0.998489
0.998992
1.00148
0.980789
0.981095
0.967408
0.973382
0.982713
0.983465
0.979571
0.974412
0.96784
0.947505
0.946023
0.952262
0.959888
1.01428
1.03719
0.987872
0.953051
0.950488
0.963523
0.99859
1.00027
0.999215
1.00046
0.991638
0.98883
0.988595
0.990678
0.998301
1.00032
0.996855
0.99791
0.97403
0.973719
0.99628
0.99609
0.982094
0.982409
0.989878
0.990043
0.971204
0.970807
0.771302
0.806707
0.850685
0.842476
0.929042
0.930407
0.825012
0.954693
0.955878
0.978693
0.98161
0.975266
0.97489
0.972242
0.97244
0.982309
0.982516
0.993548
0.990793
0.996557
0.997122
0.995544
0.995631
0.99583
0.995369
0.995729
0.995313
0.995452
0.992979
0.993272
0.995669
0.995951
0.994092
0.994255
0.993419
0.993605
0.930275
0.929709
0.980633
0.980416
0.975399
0.975142
0.981139
0.960495
0.952687
0.965564
0.965187
0.984159
0.98174
0.976868
0.973734
0.991977
0.991689
0.992551
0.993367
0.991431
0.991657
0.990544
0.990238
0.990733
0.953674
0.954445
0.960727
0.960088
0.969716
0.969336
0.970355
0.971031
0.975856
0.972559
0.991623
0.991884
0.989513
0.989158
0.989818
0.985691
0.985347
0.98453
0.984826
0.986662
0.988085
0.988398
0.988578
0.988906
0.987803
0.953725
0.945728
0.957649
0.958216
0.965535
0.962077
0.968821
0.969507
0.939638
0.938682
0.698014
0.595673
0.888024
0.857966
0.865384
0.900107
0.901883
0.901672
0.899949
0.86044
0.862734
0.598159
0.746026
0.534206
0.53791
0.651521
0.655181
0.509575
0.546718
0.872578
0.871753
0.891599
0.893255
0.946838
0.94579
0.982583
0.982187
0.977993
0.977648
0.974252
0.976045
0.970383
0.973265
0.977248
0.977614
0.973387
0.974054
0.97095
0.97095
0.924343
0.925488
0.966697
0.965506
0.966684
0.967238
0.960493
0.960857
0.921916
0.922806
0.520149
0.688911
0.600056
0.985181
0.985611
1.01082
1.01154
0.981559
0.9847
0.98644
0.985153
0.981053
1.06526
0.98016
1.03227
0.907602
0.859713
1.00194
1.00196
0.998169
0.990825
0.980731
0.981417
1.00574
1.00211
0.979139
0.979813
0.989827
0.978281
0.976614
1.05935
0.982797
0.986297
0.983991
0.984828
0.978933
0.975011
0.973449
0.995191
0.99207
0.972212
0.998548
1.00007
1.01596
0.969262
0.991639
1.00952
0.995704
1.00149
0.958143
0.962118
0.965017
0.998897
0.998794
0.985564
0.989512
0.976448
0.970671
0.954341
0.94666
0.981679
0.982492
0.950543
0.951318
0.945711
0.944191
0.958376
0.957588
0.973418
0.97274
0.981935
0.987159
0.950519
0.943546
0.964898
0.958248
0.992115
0.994128
0.976591
0.971756
0.988064
0.989743
0.97345
0.973653
0.898175
0.897757
0.593749
0.591706
0.910569
0.886144
0.908282
0.884448
0.874967
0.870905
0.935033
0.93258
0.992937
0.992296
0.99079
0.990809
0.989248
0.989312
0.990424
0.990506
0.977946
0.978973
0.9765
0.977496
0.978029
0.979788
0.996597
0.996418
0.984821
0.985753
0.978147
0.978063
0.97893
0.979274
0.970451
0.970712
0.7155
0.717268
0.949387
0.945034
0.974241
0.975347
0.924229
0.925067
0.923601
0.919037
0.98037
0.980501
0.979211
0.979873
0.988891
0.990247
0.985731
0.990905
0.992355
0.995854
1.0453
0.983579
0.982415
1.00253
0.994158
1.00257
0.985145
0.988701
0.984607
0.976222
0.97093
0.975089
1.12339
0.983982
0.990242
1.1044
1.12657
0.965017
0.984227
1.08264
0.976479
0.980983
0.953937
0.960572
0.945729
0.945364
0.98883
0.945184
1.07292
0.98491
0.958856
0.984736
0.986385
0.982448
0.984952
0.996928
1.00192
0.993474
0.999305
0.997412
0.999001
0.997554
1.00181
0.999115
0.992845
0.968463
0.962941
0.98343
0.982608
0.963551
0.95898
0.947306
0.947708
1.06639
1.01345
0.960653
1.0001
0.9991
0.998949
1.00048
0.993216
0.996875
0.998645
0.997966
0.977884
0.977156
0.998478
1.00018
0.997182
0.996706
0.984305
0.984064
0.961603
0.956622
0.988369
0.988504
0.953196
0.953209
0.986121
0.986221
0.966299
0.966282
0.934437
0.945145
0.839025
0.84331
0.775253
0.834702
0.829905
0.83453
0.939909
0.941007
0.979043
0.981932
0.978338
0.981281
0.971096
0.971352
0.977168
0.977384
0.979696
0.979902
0.988695
0.989005
0.997015
0.996847
0.995709
0.996989
0.996018
0.996184
0.995194
0.995101
0.995235
0.995097
0.994686
0.992685
0.994813
0.994957
0.993707
0.993532
0.993679
0.993858
0.780793
0.776144
0.935558
0.935023
0.979005
0.978807
0.98228
0.983159
0.983004
0.983861
0.952545
0.960267
0.940054
0.938335
0.967582
0.966877
0.982058
0.984476
0.974509
0.977612
0.993883
0.994478
0.987459
0.985066
0.992887
0.991999
0.991983
0.992597
0.991878
0.991519
0.991334
0.991961
0.990795
0.990494
0.972924
0.973431
0.958172
0.957528
0.96192
0.961397
0.961486
0.963754
0.98096
0.980624
0.974492
0.973954
0.982576
0.982887
0.990588
0.990875
0.989774
0.989436
0.988704
0.98838
0.981935
0.982258
0.989536
0.989841
0.988765
0.989066
0.989225
0.988583
0.968225
0.967812
0.955503
0.955028
0.958939
0.957083
0.964048
0.960943
0.973297
0.976541
0.97579
0.975192
0.964998
0.964138
0.935264
0.93828
0.952681
0.95366
0.926555
0.938456
0.896212
0.898237
0.559931
0.565166
0.865073
0.867694
0.749958
0.753674
0.741749
0.737068
0.878977
0.875975
0.799332
0.8019
0.911796
0.913307
0.922969
0.92424
0.940099
0.938482
0.946645
0.945061
0.978229
0.976848
0.980189
0.980564
0.977586
0.977943
0.975331
0.973714
0.976509
0.974023
0.978319
0.978691
0.972761
0.973358
0.972598
0.973117
0.969669
0.970318
0.971351
0.971717
0.967949
0.96779
0.964042
0.964676
0.959869
0.959438
0.953092
0.954101
0.886209
0.815412
0.897102
0.908167
0.690079
0.985828
0.983806
0.962934
0.940411
0.988446
0.989678
1.00194
1.00766
0.983227
0.963833
0.986456
0.99467
1.01526
1.02838
1.02783
1.00002
0.993914
0.973513
0.997847
1.03659
0.969796
0.971548
0.981452
0.984698
0.987489
0.979292
0.982599
0.983978
1.0124
1.01282
1.00178
1.01555
0.985341
0.979686
0.991784
0.997237
0.962054
1.01767
0.979894
0.990775
0.965442
1.06262
0.98631
0.984187
0.980007
0.987867
0.973206
0.97402
0.975161
0.984128
0.977039
0.979206
0.9836
0.983517
1.02188
1.04766
1.03215
0.982004
1.13477
1.12261
1.24345
0.997839
0.999345
0.956243
0.957009
0.965579
0.964055
0.985874
0.981227
0.99766
0.997827
0.995933
0.998033
0.897458
0.890415
0.984304
0.980365
0.955086
0.9558
0.980553
0.981056
0.971747
0.972401
0.909287
0.906954
0.907866
0.909697
0.950096
0.948208
0.956784
0.955965
0.979758
0.980231
0.92441
0.934036
0.967696
0.960982
0.980738
0.986019
0.912893
0.917781
0.938697
0.939839
0.989119
0.984481
0.992507
0.994548
0.96123
0.953711
0.972219
0.977025
0.988554
0.990279
0.983681
0.984918
0.927099
0.938913
0.849037
0.847473
0.968864
0.970037
0.9119
0.887716
0.909322
0.884932
0.920892
0.959227
0.958442
0.936009
0.933647
0.99101
0.99106
0.987642
0.98817
0.990025
0.990055
0.997469
0.997591
0.982834
0.982707
0.980602
0.982204
0.980828
0.982489
0.976658
0.976248
0.977207
0.978785
0.833585
0.733556
0.931039
0.908041
0.993654
0.993582
0.98547
0.985128
0.981023
0.981213
0.981904
0.982434
0.979126
0.978798
0.980964
0.980691
0.909394
0.908936
0.910857
0.910557
0.916194
0.912841
0.96914
0.966413
0.958649
0.960936
0.912795
0.913569
0.897336
0.969256
1.08435
0.97849
0.971568
0.986706
0.987476
0.991398
0.991693
1.00133
1.00165
0.995868
0.975432
0.970102
0.968796
0.975671
0.978089
0.979068
0.975511
1.03576
1.05497
1.0479
1.06182
1.08487
0.983549
0.975057
0.996409
0.998201
0.982631
0.980128
0.998642
0.991763
0.979045
0.983211
0.981551
0.981086
0.994731
0.999669
0.996976
1.00204
0.99915
0.996895
0.965001
0.958492
0.981366
0.979058
0.957875
0.982098
0.999885
0.99941
0.98066
0.98077
0.987525
0.98692
0.999332
0.999419
0.983387
0.98358
0.995786
0.995373
0.983305
0.983303
0.713163
0.762098
0.842538
0.839321
0.984376
0.984164
0.988631
0.99368
0.993968
0.961323
0.953085
0.964992
0.964814
0.978566
0.978584
0.966212
0.969055
0.962504
0.95063
0.935117
0.944928
0.93363
0.945347
0.777469
0.78036
0.958719
0.957556
0.974545
0.974811
0.979388
0.982251
0.975635
0.968909
0.968605
0.97115
0.970889
0.974857
0.975092
0.979236
0.979335
0.992729
0.989597
0.986709
0.987032
0.996595
0.996337
0.997567
0.997697
0.996003
0.996084
0.995944
0.99605
0.992981
0.990881
0.992093
0.99239
0.99562
0.995788
0.994861
0.995
0.994543
0.994705
0.993609
0.993444
0.994567
0.994716
0.993495
0.7979
0.801241
0.875556
0.875892
0.929158
0.928596
0.977581
0.974291
0.975394
0.982061
0.982963
0.982837
0.983694
0.973198
0.96898
0.950209
0.959327
0.936788
0.943891
0.957169
0.964903
0.967328
0.966991
0.971198
0.968955
0.97649
0.973339
0.977243
0.974124
0.992413
0.992125
0.98715
0.984753
0.993129
0.992276
0.992194
0.992802
0.991229
0.992343
0.992569
0.990968
0.9912
0.974718
0.97429
0.959837
0.959306
0.96511
0.964599
0.968561
0.967693
0.963275
0.960834
0.964563
0.96492
0.978018
0.978401
0.983199
0.983506
0.991361
0.990311
0.990894
0.990959
0.991294
0.989325
0.989019
0.980201
0.980567
0.984221
0.981606
0.990141
0.990436
0.988263
0.987932
0.945063
0.953249
0.95783
0.957562
0.950562
0.951344
0.963025
0.960741
0.960187
0.968006
0.962618
0.966124
0.98025
0.97973
0.979601
0.980048
0.973925
0.974609
0.96379
0.967409
0.958055
0.956967
0.943948
0.942986
0.947475
0.95802
0.958826
0.948411
0.949456
0.924741
0.936982
0.877009
0.873503
0.870712
0.875079
0.756869
0.760245
0.603574
0.608344
0.84219
0.844198
0.712724
0.839926
0.950769
0.951728
0.926831
0.928222
0.894852
0.870262
0.886669
0.883959
0.931583
0.929842
0.944848
0.943283
0.956452
0.959029
0.983826
0.983406
0.980528
0.980478
0.976673
0.975049
0.976367
0.973522
0.971909
0.975387
0.974973
0.97211
0.97264
0.973654
0.973189
0.970369
0.969773
0.957286
0.957625
0.965461
0.965955
0.96283
0.962549
0.958709
0.957319
0.953618
0.953718
0.925552
0.924788
0.907243
0.916382
0.899276
0.910239
0.804907
0.80954
0.980646
0.989688
0.992328
0.978775
0.98912
0.986982
0.98294
0.981079
0.992761
0.990217
0.966119
0.992962
0.981554
0.838081
0.988203
0.976567
0.988962
1.01217
0.952807
0.980812
0.980609
1.00756
1.00997
0.984582
0.984938
1.00015
1.00265
0.986662
0.986582
0.984278
0.98582
0.979931
0.980535
0.999871
1.00087
1.00596
1.00597
1.0121
1.00162
1.01515
1.00904
1.0027
0.986889
0.987224
0.988441
0.990846
0.984259
0.999569
0.990452
0.997391
0.990043
0.97944
0.957348
0.960597
1.07519
0.99136
0.978572
0.976098
0.97846
0.989022
0.988482
0.98391
0.983503
0.974255
0.995838
0.981359
0.981135
0.97819
0.993931
1.01622
1.01916
0.89193
0.948775
1.23145
0.971959
0.966235
0.963176
0.962863
0.991531
0.994906
0.961274
0.975412
0.967655
0.997934
0.996709
0.989316
0.984997
0.997481
0.985543
0.985166
0.796615
0.79962
0.980765
0.984811
0.981024
0.981324
0.973854
0.978874
0.981547
0.980395
0.97474
0.974064
0.968708
0.968101
0.939831
0.940887
0.891909
0.889196
0.942781
0.94112
0.962269
0.963259
0.95857
0.959462
0.962874
0.962192
0.978773
0.978262
0.980386
0.97991
0.902575
0.890822
0.79379
0.957283
0.96467
0.991685
0.993276
0.995362
0.724752
0.724697
0.937511
0.988726
0.984086
0.976142
0.971274
0.985302
0.980727
0.94084
0.93343
0.979058
0.979801
0.952641
0.95851
0.91231
0.91332
0.597222
0.715858
0.737179
0.724636
0.973717
0.972414
0.924646
0.925833
0.922261
0.923451
0.950642
0.949207
0.942916
0.944235
0.990929
0.990976
0.994058
0.99357
0.944768
0.950845
0.988234
0.987721
0.989484
0.989502
0.990059
0.990079
0.996459
0.996323
0.985345
0.985216
0.980516
0.982087
0.98075
0.982376
0.97671
0.976838
0.977857
0.976771
0.968304
0.949549
0.817838
0.74204
0.86035
0.7214
0.880225
0.715234
0.997861
0.997222
0.990983
0.991103
0.98711
0.987236
0.979915
0.97994
0.979819
0.97969
0.982734
0.983018
0.97964
0.980041
0.981591
0.981529
0.969554
0.970068
0.931492
0.931578
0.927913
0.928755
0.910012
0.906424
0.970136
0.973491
0.978999
0.980015
0.94322
0.941061
0.762403
1.07463
1.05828
1.02029
0.957188
0.962428
0.984289
0.985073
0.979247
0.979599
0.991418
0.991833
0.983357
0.991559
0.994868
0.994377
0.99316
0.979481
0.976585
0.987564
0.983606
0.974923
0.984994
0.858094
1.12597
1.05579
1.07831
1.01478
1.03044
1.11453
0.936199
0.97133
0.981685
0.984888
0.997007
0.999659
0.982418
0.999725
0.994013
0.957451
0.952778
0.981476
0.980789
0.985024
0.984296
0.997849
0.997921
0.982736
0.982958
0.996656
0.997107
0.984487
0.98424
0.988996
0.988638
0.711845
0.749797
0.816037
0.948951
0.91735
0.736961
0.769679
0.985499
0.985308
0.990866
0.99077
0.991447
0.991522
0.961506
0.953142
0.965169
0.982938
0.982836
0.986597
0.986683
0.966717
0.968112
0.969742
0.951219
0.962718
0.85133
0.855066
0.800467
0.771284
0.847397
0.914681
0.945761
0.959931
0.963734
0.964924
0.987922
0.990407
0.976
0.976358
0.969207
0.970346
0.970069
0.973197
0.972913
0.976965
0.974631
0.984211
0.9845
0.982133
0.979508
0.987799
0.986958
0.985728
0.996535
0.996401
0.99756
0.997335
0.996326
0.997273
0.99753
0.995889
0.99576
0.995264
0.995082
0.994409
0.99413
0.995532
0.995387
0.995268
0.995393
0.994377
0.993786
0.993962
0.993876
0.994413
0.939725
0.940153
0.948666
0.947672
0.76761
0.76702
0.936092
0.936623
0.975837
0.975682
0.956451
0.956244
0.981826
0.982753
0.980925
0.980657
0.983769
0.984637
0.968715
0.972986
0.964442
0.964629
0.875764
0.797506
0.937131
0.942969
0.772911
0.783596
0.859039
0.918214
0.980773
0.983203
0.9686
0.970808
0.967216
0.966353
0.967858
0.968273
0.982371
0.984793
0.976108
0.972942
0.992091
0.992389
0.992624
0.992332
0.992141
0.991159
0.986335
0.988705
0.990584
0.990886
0.993227
0.993437
0.992176
0.991552
0.978872
0.978517
0.971067
0.970602
0.956881
0.952904
0.955213
0.955986
0.964349
0.966209
0.966931
0.964268
0.962798
0.960189
0.964409
0.965273
0.989601
0.989408
0.985939
0.985658
0.988782
0.989084
0.991652
0.991883
0.990033
0.990265
0.99143
0.991127
0.98802
0.988334
0.983227
0.982878
0.989208
0.988898
0.978174
0.978501
0.924537
0.92542
0.93038
0.954216
0.953567
0.952131
0.956224
0.971092
0.974934
0.96652
0.9649
0.961499
0.942549
0.941691
0.96583
0.966316
0.979146
0.974962
0.9743
0.971856
0.970736
0.90022
0.901707
0.969184
0.968378
0.96213
0.961147
0.961002
0.961861
0.940571
0.937664
0.949246
0.94827
0.959485
0.960267
0.954595
0.955495
0.91271
0.9107
0.763212
0.764798
0.650778
0.655196
0.525203
0.529921
0.846158
0.847994
0.884113
0.882443