/*--------------------------------*- C++ -*----------------------------------*\
  =========                 |
  \\      /  F ield         | OpenFOAM: The Open Source CFD Toolbox
   \\    /   O peration     | Website:  https://openfoam.org
    \\  /    A nd           | Version:  7
     \\/     M anipulation  |
\*---------------------------------------------------------------------------*/
FoamFile
{
    version     2.0;
    format      ascii;
    class       volScalarField;
    location    "780";
    object      T;
}
// * * * * * * * * * * * * * * * * * * * * * * * * * * * * * * * * * * * * * //

dimensions      [0 0 0 1 0 0 0];

internalField   nonuniform List<scalar> 
238806
(
0.992854
1.00006
0.947546
1.29253
1.14832
1.00584
0.996627
0.989624
0.989181
0.959767
0.982223
1.1572
1.00106
0.998572
1.19451
1.17857
0.977525
0.972038
0.989374
1.00286
0.990901
0.988138
1.11739
0.987007
1.14748
0.946481
0.959462
0.983155
1.05305
1.1514
1.0021
1.00229
0.985645
0.993455
1.00145
1.00146
0.827717
0.824188
0.9866
1.0189
1.01292
1.24016
0.999644
0.999611
1.00142
0.988435
0.969672
0.964066
0.993603
0.986842
1.00096
1.0024
1.00083
0.997861
1.00301
1.0058
0.953094
0.933716
0.973949
0.938115
0.954392
0.993497
0.971258
0.984222
0.9864
1.00231
1.00055
0.990414
0.995441
0.99715
0.99605
0.992529
0.992661
0.984847
0.990591
1.00397
0.993681
1.00331
1.00339
0.989201
0.991421
0.991409
0.989098
0.990386
0.986089
0.990244
0.991362
0.983213
1.01209
0.989194
0.984087
1.0006
0.997039
0.991346
0.986239
1.00336
1.00359
0.976746
0.962477
1.25077
0.988132
0.9933
0.989429
1.00094
1.00477
0.984929
0.983383
0.983068
0.985395
0.994154
0.99032
0.986812
0.993843
1.00273
1.00093
1.00126
1.00148
0.761552
0.668141
0.701264
1.01386
1.08947
0.985428
0.989168
1.00616
0.996583
1.10797
1.15225
0.982015
1.08394
1.00908
0.945318
0.96148
1.25967
0.945286
0.970384
0.987721
0.98756
0.927919
1.12521
1.06359
1.17989
0.989965
0.988424
0.984471
0.991518
0.989208
0.990378
0.994381
0.992102
0.988316
0.995194
0.99005
0.985572
0.988586
0.984356
0.983066
0.990162
0.99295
0.991617
0.98905
1.00387
0.996108
0.999238
0.996457
0.999877
0.999861
0.999418
0.997248
0.91237
0.910422
0.990237
0.988351
1.04305
1.02286
0.972396
0.985579
0.990297
1.00074
0.99462
1.10131
1.14688
1.36999
0.958988
0.942628
0.967227
0.922238
1.09466
0.991076
0.992097
1.00125
1.00133
0.976657
1.02014
0.961262
0.9487
0.965463
1.14051
1.2955
1.05342
1.17958
0.9891
0.985784
0.991339
0.990433
0.990456
0.991441
0.985429
0.984783
0.988498
0.992984
0.96281
0.969325
0.989763
0.991504
0.991787
0.992201
0.967333
0.978217
0.987579
0.983568
0.992824
0.988902
0.987492
1.00267
0.996329
0.999105
1.00161
1.0016
1.00148
1.00153
0.98952
0.989612
0.999194
0.999323
0.985143
0.984927
0.986649
0.986399
0.984825
1.01657
1.02117
0.970599
0.991611
0.991209
0.98625
0.993813
0.993134
0.999289
0.993461
0.993409
0.98552
0.987056
0.985693
0.979049
0.980063
1.00172
1.00175
1.0122
0.986263
0.988426
1.00073
1.00134
1.00387
1.00281
0.978855
0.976694
0.994753
0.992463
0.967376
0.96643
0.980996
1.04536
0.967776
1.2184
1.07793
0.985642
0.988643
0.989984
0.989482
0.989456
0.992468
0.987208
0.984861
1.00156
1.00176
1.00078
0.997895
0.987333
0.989971
0.963672
0.969244
0.988326
0.990673
0.991828
0.988975
0.991306
0.985572
0.983035
0.972793
0.987622
0.991559
1.0043
1.00275
0.984966
0.983518
1.00322
1.00122
1.00375
0.990796
1.00027
1.00159
0.999926
1.00162
0.994609
0.995353
0.970112
0.97015
1.00124
1.00128
1
0.999943
0.991217
0.989013
0.997761
0.997501
0.984993
0.985217
0.71633
0.990449
0.990767
1.09176
1.07526
0.97367
0.973231
0.9931
0.993012
0.942456
0.941833
1.02866
0.963425
1.00624
0.99686
0.993687
1
0.993537
0.992435
1.17256
1.19879
1.02708
1.22489
1.07229
1.06938
0.951237
1.04805
1.00442
1.00316
0.994507
0.999601
0.999614
1.00363
1.00315
0.98493
0.991467
0.985886
0.97816
1.09925
1.03599
1.12386
1.00665
1.00605
1.00076
0.990538
1.36717
1.08959
1.04236
1.06679
0.989132
0.993871
1.00419
0.987895
1.00234
0.999557
0.991164
0.982861
0.991361
0.982823
0.982641
0.982297
0.982193
0.983025
1.00472
1.00056
0.999819
0.995099
1.0018
1.00155
0.993739
0.98885
0.992743
0.992098
0.963978
0.961381
0.986372
0.988848
0.986892
0.989478
0.99194
0.991022
0.982569
0.974327
0.965002
0.964841
0.985592
0.989519
1.00254
1.00192
0.986649
0.984017
1.00106
1.00302
0.995971
0.994408
1.00321
1.00325
0.999994
1.00161
0.993964
0.984172
0.984282
1.00152
1.00156
1.00036
1.00034
1.00163
1.00166
0.989204
0.989109
0.981115
0.981405
0.997789
0.997647
0.968815
0.962053
0.996322
0.996496
0.994965
0.999646
0.993098
0.98338
0.986607
0.845645
1.0683
1.04244
1.11396
1.00318
1.00598
0.985743
0.985834
0.943349
0.944144
0.948018
0.701754
1.13369
1.04722
0.945085
1.03276
0.992516
0.993864
1.00486
0.995874
0.993899
0.987741
0.979929
0.991545
0.998039
0.957019
1.12397
1.2258
0.922958
1.15166
0.962975
0.990874
0.984679
0.990841
0.987223
0.991287
0.991307
1.004
1.00253
1.00002
1.00049
1.0032
1.00345
0.99991
0.995265
0.9842
0.980952
1.16262
0.97208
0.968883
0.985385
1.056
1.21529
1.09192
1.18481
0.99894
1.02423
0.990804
0.991728
0.992239
1.00539
0.985936
0.98929
0.987891
0.987598
0.988897
0.990636
0.989368
0.990681
0.983432
0.984949
0.986377
0.986816
1.00089
1.00042
1.00157
1.00181
0.990686
0.988828
1.00155
1.00173
0.998384
1.00092
0.990849
0.99589
0.965018
0.962631
1.08276
1.0832
0.983973
0.986272
0.983113
0.984244
0.985564
0.983591
0.990249
0.987152
0.991131
0.991803
0.987438
0.980352
0.969707
0.964593
0.983211
0.98358
0.984163
0.987422
1.00216
1.00366
0.994246
0.997825
0.988058
0.9849
0.984563
0.982191
1.00355
1.00174
1.00095
1.00152
0.990223
0.993198
0.992544
0.993413
1.00145
1.00145
0.996206
0.997021
0.911636
0.910164
0.962579
0.963431
1.00143
1.00144
0.999224
0.997038
1.0002
1.00027
0.978889
0.97879
0.976928
0.978566
0.99908
0.998769
0.997903
0.998041
0.947259
0.946347
0.886676
0.884241
0.992357
0.994598
0.989852
0.98804
1.00875
1.01853
1.01142
1.05587
0.987486
0.984584
0.989731
0.985132
0.996263
0.982108
1.0801
1.04564
0.995382
1.00019
0.921141
0.921598
0.991789
0.992137
0.989968
0.989475
0.846958
0.848805
0.984927
0.881439
0.714786
0.703289
1.02077
0.979439
0.982007
0.983369
0.992698
0.9931
0.995747
0.995043
1.00505
0.996201
0.985351
0.984578
0.983738
0.98834
1.14862
1.13747
1.0019
0.998029
0.981921
0.964678
0.964971
0.977377
1.18556
0.990157
0.983342
1.02282
1.0265
0.993343
0.988284
0.987451
0.987788
1.00403
1.00239
0.995535
0.9961
1.00378
1.00297
0.985312
0.981842
1.00336
1.00598
1
1.06682
0.963964
1.24099
0.968832
0.980379
0.991498
0.872334
1.07632
1.00291
0.997725
0.974376
0.981336
1.23498
1.20622
0.987177
0.987737
0.987361
1.0007
0.99974
1.00231
0.989639
0.978341
0.9922
0.984184
0.995288
0.986384
0.983009
0.986088
0.986334
1.00057
1.00083
0.999731
0.998366
0.996059
1.00022
0.989062
0.998193
0.999023
1.00104
1.00157
1.00179
0.994985
0.993798
0.985571
0.98128
0.964599
0.967754
1.00355
1.03096
0.966568
0.972645
0.985584
0.983347
0.984732
0.987203
0.983115
0.983654
0.983182
0.984476
0.991602
0.988964
0.990564
0.985516
0.976538
0.96868
0.983919
0.983088
1.00245
1.00273
0.992296
0.98983
0.992641
0.991027
0.983371
0.983766
1.00369
0.998013
1.0015
1.00375
0.998619
0.993417
0.989933
1.00224
1.00147
1.00147
1.00317
0.998302
0.997237
1.00041
0.999902
0.984322
0.98378
0.855515
0.878148
0.880122
0.879231
0.992685
0.99513
1.00039
1.00039
1.00078
1.00082
1.00172
1.00179
0.988398
0.988346
0.980199
0.980984
1.00033
0.999984
0.977559
0.977722
0.98667
0.986877
0.995256
0.995386
0.99806
0.997927
0.965092
0.965665
0.953516
0.95447
0.944584
0.943723
0.688651
0.682306
0.956951
0.95598
0.994422
0.992153
0.674586
0.682979
0.708423
0.996029
1.00897
0.983458
0.963553
1.03493
1.00836
1.00848
1.02662
1.06953
0.987101
0.984055
0.9906
0.989323
0.987928
0.990547
0.997201
0.98352
0.978941
0.998438
1.00244
1.00241
0.977286
0.976875
0.99488
0.999734
1.00194
1.00465
0.948164
0.936049
0.994063
0.994021
0.98568
0.985694
0.986117
0.98579
0.989019
0.988575
0.939659
0.939189
1.0214
0.976302
0.998884
0.969223
0.961192
1.00038
1.00426
1.0283
0.925461
1.00603
1.00653
0.997293
0.988955
0.992507
0.994742
0.994649
0.991892
0.995663
1.00411
0.98393
0.989214
0.989534
0.988181
0.973116
1.04538
0.990924
0.988433
0.96062
0.978029
0.988877
1.08088
0.984096
0.990658
0.919512
1.08513
0.999608
0.997183
0.991376
0.991922
1.00395
1.00266
0.996632
0.997176
0.984224
0.987573
0.990972
0.987963
0.975833
0.976689
1.02037
0.980155
0.980375
1.15551
1.26813
1.04255
0.982928
0.989353
0.969292
0.971271
1.03976
1.11002
0.95695
0.947244
1.00987
0.999133
0.988122
0.991546
0.985772
0.988132
0.991046
1.01821
0.990142
0.989435
1.0044
1.00212
0.988939
0.985654
0.985146
1.0047
1.0047
1.00149
1.00157
0.989157
0.99153
1.00156
1.0017
0.989526
0.994581
0.966533
0.969837
0.960968
0.960755
1.01822
0.990389
0.966589
0.963798
0.981504
0.983374
0.985295
0.989548
0.987159
0.986936
0.984365
0.990868
0.99237
0.979514
0.987895
1.00204
1.00364
0.993764
0.99124
0.998778
0.995094
0.995575
0.992709
0.990204
0.992375
1.00347
0.999472
0.99997
1.0016
1.00427
1.00166
1.00156
1.00109
0.994822
0.99231
0.998473
1.00151
1.00315
1.00232
1.0024
1.00169
1.00193
0.97724
0.955024
0.853732
0.876484
0.965819
0.969852
0.964151
0.970062
0.989401
0.989549
1.00091
1.00092
1.00099
1.00104
1.00085
1.00071
1.00034
1.00006
0.973717
0.977156
0.980069
0.980713
1.00055
1.00021
0.978441
0.978177
0.979116
0.979227
0.985976
0.985717
0.984507
0.984734
0.991232
0.991415
0.996893
0.996731
0.998807
0.998915
0.998174
0.998302
0.984916
0.981697
0.961223
0.968141
0.920811
0.922006
0.712952
0.706888
0.968067
0.968695
0.96932
0.96901
0.989871
0.990101
0.990915
0.990942
0.983263
0.983248
1.00194
0.998267
0.985286
0.997339
1.00089
1.03038
1.03324
1.00736
0.968964
1.00823
1.00842
0.990391
0.989298
0.98241
0.9826
0.982642
0.983309
0.987945
0.982141
1.0683
1.12469
1.0148
1.11612
0.987458
0.987046
1.00013
1.00238
0.929272
0.927395
1.00394
1.00676
0.99958
0.994721
1.00334
1.00614
0.95737
0.963811
0.972603
0.966926
0.993501
0.993785
0.991287
0.992012
0.986553
0.988026
0.994374
0.994598
0.985204
0.985183
0.992013
0.992438
0.96413
0.965907
0.857665
0.866117
0.945316
0.946117
0.990747
1.10783
0.980753
0.981763
1.00244
0.999875
0.991948
0.994562
0.997595
0.996678
1.00441
0.99568
0.993147
0.98837
0.982296
0.993097
1.03729
0.991314
1.03264
0.993521
0.95101
1.00382
0.996573
0.974849
0.987591
1.26382
1.0241
0.970904
1.01354
0.921717
1.09036
1.0303
1.00006
0.999725
0.993756
0.986423
0.992886
0.993759
0.998172
1.00128
0.999522
0.998938
0.991426
0.987512
1.01369
0.983214
0.983589
0.993802
0.967608
0.98926
0.975492
0.953013
1.00463
0.924328
0.986569
0.999942
1.00159
0.995078
0.994885
0.973572
0.979163
0.987903
1.04267
0.981813
0.962364
1.07856
0.998476
1.00195
0.98763
0.985192
1.00477
1.00016
1.00153
1.00464
1.00169
1.00009
0.987213
0.988364
0.985314
0.984954
0.997403
1.00067
1.00158
1.00169
1.00096
0.998692
0.977498
0.981526
0.963328
0.965353
0.961832
0.963706
1.06479
1.11738
0.963055
0.966575
0.985913
1.00694
0.983087
0.984284
0.985561
0.988072
0.98956
0.992542
1.00363
1.00264
1.0006
0.997636
0.993448
0.996756
0.989209
0.986022
1.00158
1.00348
1.00325
1.00051
1.0016
1.0003
1.0016
1.0041
1.00117
1.00165
0.991518
0.991104
1.00161
1.00018
1.00157
1.00316
0.99917
1.00214
0.955861
0.977752
0.966228
0.969767
0.969931
0.969999
0.970052
0.969899
0.980122
0.981769
0.995423
0.998166
1.00092
1.00039
1.00039
1.00038
1.00085
1.00037
1.00136
1.00147
1.00076
1.00081
0.983954
0.984002
0.977306
0.973811
0.986521
0.9863
0.999799
0.999588
0.999533
0.999336
1.00044
0.977876
0.978249
0.9786
0.978923
0.977558
0.988273
0.988067
0.981886
0.982112
0.987075
0.98925
0.998866
0.998656
0.998547
0.998435
0.989588
0.989778
0.997474
0.997578
0.998557
0.99868
0.97398
0.97437
0.983769
0.986424
0.983162
0.982638
0.950854
0.949994
0.923212
0.94546
0.723512
0.719947
0.786609
0.782415
0.93001
0.92894
0.972762
0.972542
0.987694
0.987621
0.991909
0.989846
0.990211
0.990203
0.987717
0.9895
0.981641
0.981281
0.771016
0.674935
0.982526
0.973896
1.0217
0.999882
0.951682
0.976549
1.05268
0.992127
1.01394
0.963746
1.03262
0.995122
1.00205
0.987294
0.986643
0.994779
1.00969
0.972297
0.983947
0.983971
0.986562
0.987116
1.24174
1.002
1.03976
1.00197
1.04455
1.2542
1.16371
0.976036
0.972292
1.00014
1.00013
0.988712
0.983465
0.971317
0.970543
0.992395
0.992818
0.969309
0.972703
0.999411
0.994542
0.957886
0.964884
0.966379
0.972145
0.997949
0.997515
0.993497
0.993625
0.992059
0.991352
0.866953
0.868586
0.89818
0.865391
0.987385
0.974727
0.985207
0.98528
0.987045
0.986711
0.973868
0.974391
0.979325
0.980904
0.850698
0.85363
0.945472
0.946731
0.982219
0.983059
1.01146
0.993573
0.995123
0.995342
0.995359
0.997159
0.992128
0.994407
1.00466
0.995731
1.00359
0.989763
0.988957
0.992536
0.948277
0.964162
0.967797
0.989657
0.992559
1.00803
0.996166
0.994515
1.00003
0.958549
0.967952
1.03173
1.03077
0.995899
1.00358
0.999059
1.00191
1.0009
0.997681
0.996467
0.99858
0.995857
0.989219
0.986052
0.989074
0.99483
1.02135
0.976153
1.00011
0.994246
1.01224
1.00826
0.998511
0.975951
0.998268
1.03737
1.13337
1.14995
1.01623
1.04455
0.994309
0.993171
0.989802
0.973865
0.981647
0.973878
0.953924
0.97546
1.00528
0.982451
1.17597
0.965083
0.987079
0.97377
0.999211
1.00223
1.00479
1.00562
1.00025
1.00092
1.00481
1.00193
0.997425
1.00105
1.00464
0.990108
1.0018
0.984264
0.985588
0.988925
0.990874
1.00044
0.996737
0.983573
0.986821
0.973373
0.967882
0.96881
0.973098
0.983129
0.966909
1.06702
1.02826
1.10245
1.11205
0.985998
1.05879
1.03007
0.975909
0.983235
0.983476
1.00245
1.00366
0.99691
1.00045
0.993026
0.990565
0.992132
0.99445
0.990098
0.987105
1.0014
1.00337
1.0015
1.0036
1.00158
1.00394
0.991679
0.991746
1.00161
1.00008
1.00089
1.00036
0.978151
0.974169
0.977953
0.977318
0.907038
0.903185
0.902942
0.905822
0.954351
0.95676
0.987382
0.984898
0.991235
0.991102
0.993015
0.991334
0.999182
0.999406
1.00123
1.00127
1.00136
1.00138
1.00088
1.00089
1.00109
1.00019
1.00038
1.00124
1.00032
1.0003
1.00015
1.00011
0.841133
0.839134
0.989329
0.989426
0.989828
0.990149
0.880409
0.869709
0.978891
0.980125
0.986955
0.98717
0.99457
0.992186
0.999624
0.999424
0.99925
0.999057
0.975927
0.975733
0.978807
0.977115
0.977895
0.979701
0.984023
0.983738
0.98906
0.988867
0.999154
0.99896
0.998664
0.999012
0.992371
0.992196
0.998685
0.997347
0.998314
0.998191
0.998161
0.998296
0.985268
0.985096
0.974724
0.974932
0.985885
0.983092
0.980809
0.989687
0.989435
0.977702
0.978107
0.93669
0.938296
0.891252
0.88625
0.743398
0.748033
0.734849
0.739011
0.696022
0.69979
0.888048
0.78887
0.949734
0.950529
0.947376
0.946191
0.994013
0.994189
0.991479
0.988899
0.991961
0.991899
0.985759
0.985561
0.987013
0.988745
0.990583
0.990563
0.986898
0.986614
0.973211
0.975673
0.67122
0.676607
1.0095
1.01327
1.0138
1.00467
0.980739
0.98983
0.990991
1.01858
0.989637
1.04433
0.99872
0.988415
0.989946
0.989852
0.982502
0.984308
0.987535
0.981132
0.988333
0.986377
0.987927
0.990923
0.989587
0.988643
0.983578
0.984958
0.98601
0.994349
0.990605
1.03072
1.00496
1.02012
1.13656
1.0092
0.989791
0.990297
0.980259
0.917175
0.982095
0.980401
0.988079
0.987698
0.994833
0.996577
0.970419
0.970844
0.968966
0.968227
0.992271
0.992547
0.943268
0.884697
0.972283
0.968947
1.00349
1.00631
1.00249
1.00524
0.964481
0.967428
0.946191
0.94529
0.970666
0.964644
0.981119
0.980591
0.994142
0.993317
0.993648
0.993657
0.99284
0.992793
0.996468
0.996443
0.886167
0.875861
0.868242
0.974983
0.98744
0.99416
0.994142
0.987788
0.987306
0.985512
0.985243
0.992378
0.992413
0.842852
0.843536
0.989512
0.991127
0.948489
0.949417
0.985184
0.979942
1.14136
1.12743
0.985845
0.987775
1.00425
1.00127
0.992383
0.99389
1.001
1.00208
0.992559
0.994088
1.00537
0.996674
0.986929
0.986982
1.14196
1.11627
0.957486
1.00422
0.98417
0.990433
1.00161
0.998638
1.00198
0.98719
0.986679
0.996841
0.98585
0.989885
1.12921
1.15857
0.984477
0.973659
0.97438
0.999584
1.10369
1.06373
1.16706
1.13262
1.11082
0.994392
0.992417
0.970646
0.967347
0.966149
0.969009
0.978349
0.998506
0.994946
1.09176
0.989574
0.980355
0.984299
0.990935
0.989173
0.995638
0.999732
1.00491
0.99975
0.99496
1.0012
1.00479
0.998232
1.00181
0.991887
1.00098
1.00172
1.00445
0.985444
0.985469
0.978181
0.983471
0.991219
0.991569
0.989033
0.984832
0.979291
0.962524
0.962246
0.972115
0.982227
1.09456
1.10391
1.01288
0.965881
0.964827
0.983881
1.00128
1.00307
1.00228
1.00367
0.994493
0.991866
0.991577
0.993391
1.00148
1.00349
0.998914
1.00013
0.986636
0.986492
1.00066
1.0003
0.989673
0.989843
0.996085
0.996142
0.982352
0.982137
0.878137
0.895827
0.919409
0.915133
0.964793
0.965335
0.90849
0.973101
0.973954
0.985346
0.987801
0.982674
0.982449
0.983046
0.983033
0.987422
0.98755
0.997891
0.995129
1.00173
1.00215
1.00091
1.00091
1.0013
1.00119
1.00141
1.00114
1.00119
0.998085
0.998296
1.00158
1.00165
1.00093
1.00099
1.00041
1.00047
0.963702
0.963398
0.989015
0.988918
0.985779
0.985659
0.989235
0.97774
0.974035
0.978517
0.978413
0.990612
0.988441
0.984214
0.981764
0.999883
0.999667
0.99931
1.00037
0.999743
0.999826
0.999345
0.999152
0.999488
0.97634
0.976727
0.978348
0.978135
0.979493
0.979288
0.98029
0.980717
0.984268
0.981651
0.999466
0.999605
0.998959
0.998759
0.99917
0.994611
0.994433
0.992708
0.992863
0.995112
0.998426
0.998545
0.998761
0.998897
0.998429
0.973956
0.970366
0.975406
0.975625
0.97757
0.975494
0.980047
0.980464
0.96857
0.968087
0.818908
0.753339
0.940342
0.924442
0.928153
0.946054
0.946963
0.949092
0.948164
0.924439
0.92571
0.752273
0.850402
0.710016
0.712716
0.791506
0.793928
0.692018
0.71616
0.932289
0.931826
0.941188
0.942111
0.973769
0.973268
0.994308
0.994149
0.987906
0.987764
0.992419
0.993148
0.988805
0.991038
0.990406
0.990435
0.989664
0.991696
0.987059
0.985888
0.963536
0.964197
0.989826
0.989833
0.983523
0.983503
0.985284
0.983573
0.968851
0.968699
0.694427
0.814194
0.75129
0.99009
0.990418
1.0133
1.01407
0.990874
0.992875
0.995001
0.996352
1.005
1.09483
0.991545
1.05606
0.930814
0.883005
1.00632
1.00644
1.00077
0.993158
0.982701
0.983396
1.00826
1.005
0.981047
0.981713
0.994532
0.981742
0.994283
1.08362
0.990647
0.993333
0.989484
0.989683
0.993735
0.987987
0.984925
1.00449
1.00287
0.98113
1.00986
1.01223
1.03394
0.983921
1.01129
1.01185
0.997846
1.00401
0.977239
0.976422
0.976626
1.0025
1.00247
0.991148
0.994671
0.981947
0.976124
0.975344
0.972778
1.00337
1.00368
0.971471
0.971809
0.967858
0.9671
0.978204
0.977837
0.992128
0.991854
0.991451
0.996469
0.971862
0.968576
0.980346
0.976511
1.00365
1.00647
0.988962
0.984904
1.00214
1.00486
0.996762
0.998891
0.946924
0.946566
0.752997
0.751521
0.949961
0.936458
0.948724
0.935576
0.930406
0.92809
0.97616
0.975099
0.995701
0.994989
0.993242
0.993271
0.992587
0.992629
0.994446
0.994469
0.984654
0.985042
0.986027
0.98844
0.992258
0.992071
1.00066
1.00054
0.994071
0.99537
0.984927
0.984819
0.987381
0.987772
0.986714
0.987031
0.844363
0.845638
0.966659
0.962615
0.988733
0.989718
0.946732
0.947541
0.97655
0.973145
0.985846
0.985803
0.984312
0.983991
0.993627
0.997489
0.992406
0.993424
0.995493
0.998471
1.07744
0.988754
0.987903
1.0054
0.997329
1.00553
0.991278
0.996839
0.989791
0.981827
0.983233
0.992644
1.151
0.996482
1.01351
1.16047
1.20286
0.982803
1.00612
1.12752
0.982073
0.986244
0.968665
0.977177
0.95944
0.957596
1.00435
0.962514
1.09794
1.00498
0.979281
0.988483
0.989217
0.989362
0.994574
0.999839
1.00483
0.99525
1.00152
0.999462
1.00163
1.00051
1.0047
1.00163
0.995501
0.979429
0.974551
0.99118
0.991183
0.97552
0.971541
0.963349
0.965504
1.11215
1.04719
0.9722
1.00293
1.00182
1.00189
1.0036
0.995973
0.999604
1.0016
1.00054
0.988452
0.987861
1.0021
1.00369
1.00177
1.00126
0.990508
0.990426
0.982497
0.981396
0.992928
0.992995
0.974088
0.974129
0.99144
0.991491
0.980669
0.980731
0.966877
0.969575
0.915754
0.917976
0.881277
0.911029
0.911028
0.913424
0.961345
0.962128
0.985566
0.988005
0.985124
0.987592
0.983096
0.983095
0.983237
0.983357
0.985232
0.985353
0.993101
0.993338
1.00199
1.00188
1.00005
1.00144
1.00143
1.00149
1.00037
1.00038
1.00115
1.0011
0.999997
0.997876
1.00101
1.00106
1.00065
1.00059
1.00056
1.00062
0.874938
0.872123
0.964854
0.964578
0.988275
0.988192
0.989739
0.990069
0.990065
0.990376
0.973969
0.977597
0.964225
0.963233
0.980745
0.982282
0.988634
0.990813
0.982222
0.984672
1.00011
1.00094
0.994376
0.991989
1.00012
0.998984
1.00006
1.0004
0.999907
0.999713
0.99983
1.00017
0.99944
0.999245
0.982432
0.982743
0.977429
0.977171
0.97682
0.976702
0.980138
0.979765
0.988674
0.988474
0.983415
0.983071
0.990507
0.990684
0.998164
0.998331
0.999056
0.998861
0.998283
0.998141
0.990146
0.990327
0.999158
0.999283
0.9988
0.998911
0.99903
0.998827
0.98289
0.982708
0.974354
0.974031
0.97451
0.975174
0.976716
0.974956
0.983456
0.986167
0.992097
0.991846
0.987359
0.986981
0.976529
0.977839
0.976139
0.976622
0.960313
0.967411
0.944098
0.94511
0.728686
0.732445
0.927009
0.928486
0.852869
0.855192
0.847703
0.84473
0.936591
0.935009
0.889611
0.89106
0.952116
0.952945
0.958948
0.959626
0.969842
0.969107
0.974085
0.973415
0.988233
0.987125
0.991487
0.991641
0.987837
0.987976
0.991348
0.988765
0.994072
0.991835
0.992515
0.992513
0.989445
0.991437
0.98651
0.986697
0.986544
0.986808
0.985434
0.985355
0.98913
0.987376
0.983878
0.983217
0.983188
0.984836
0.97892
0.979338
0.943873
0.897554
0.945611
0.949587
0.814544
0.99055
0.989098
1.00515
0.989458
0.991958
0.992983
1.02871
1.04004
0.988931
0.970705
0.997019
1.00431
1.02532
1.03937
1.03884
1.00943
1.01173
0.988719
1.02007
1.05953
0.981843
0.983001
0.983826
0.987088
0.991475
0.982673
0.984671
0.986078
1.01548
1.01588
1.00468
1.01851
0.98787
0.981657
0.993858
0.999417
0.970321
1.0303
0.983271
0.995696
0.98362
1.0866
0.992449
0.990656
0.985916
0.992565
0.984385
0.983899
0.98446
0.991805
0.984311
0.98708
0.992521
0.993741
1.04566
1.07127
1.06283
1.01665
1.17473
1.14177
1.26791
1.00063
1.00229
0.974778
0.975823
0.976489
0.975475
0.988363
0.983641
1.00128
1.00136
1.00007
1.00225
0.95047
0.946745
0.987539
0.983544
0.975675
0.976001
0.994542
0.99474
0.988081
0.988398
0.953143
0.951932
0.953427
0.954353
0.971567
0.969193
0.977463
0.977083
0.993593
0.993786
0.955855
0.961072
0.981306
0.977232
0.990847
0.995912
0.950494
0.952947
0.96836
0.968838
1.00005
0.995218
1.00379
1.00662
0.978586
0.974227
0.985111
0.989148
1.00231
1.00505
1.00057
1.00311
0.95989
0.966852
0.920613
0.919683
0.985114
0.987235
0.950674
0.937313
0.949294
0.935802
0.956084
0.98084
0.980488
0.976207
0.975189
0.993531
0.993636
0.992044
0.992225
0.993536
0.993529
1.00198
1.00203
0.988154
0.988094
0.986133
0.987253
0.986346
0.987535
0.984077
0.984623
0.991806
0.991279
0.918846
0.854461
0.954663
0.937785
0.997855
0.997835
0.995735
0.995773
0.98623
0.986377
0.991669
0.992307
0.986861
0.986466
0.99318
0.992903
0.937592
0.937491
0.938346
0.938147
0.970848
0.968302
0.984139
0.981646
0.975344
0.977503
0.940161
0.940913
1.01245
1.06531
1.13134
0.984386
0.977942
0.991101
0.991678
0.994171
0.99433
1.00462
1.00491
0.999009
0.988976
0.98123
0.979405
0.983454
0.984509
0.995817
1.07341
1.1186
1.09657
1.08339
1.09522
1.12564
0.991926
0.984033
1.00679
1.00777
1.00554
0.992929
1.0012
0.994248
0.983709
0.987549
0.986762
0.986108
0.996545
1.002
0.999843
1.00497
1.00171
0.998873
0.976191
0.970441
0.990337
0.988481
0.977992
1.0063
1.00276
1.00217
0.990217
0.990195
0.990725
0.990165
1.00291
1.00295
0.988108
0.988228
1.00087
1.00035
0.990194
0.990096
0.834563
0.868659
0.90656
0.904704
0.99044
0.990333
0.993056
1.00026
1.00088
0.97828
0.97419
0.97938
0.979284
0.986595
0.986587
0.980418
0.981287
0.979558
0.972055
0.967118
0.969468
0.96658
0.969675
0.882731
0.884547
0.976791
0.975921
0.985876
0.985957
0.985784
0.988207
0.982896
0.979351
0.979274
0.981267
0.981221
0.981587
0.981714
0.985006
0.985033
0.997214
0.994096
0.991264
0.991512
1.00136
1.00118
1.00238
1.00244
1.00145
1.00146
1.00133
1.00135
0.998831
0.996617
0.997457
0.997667
1.0015
1.00157
1.00117
1.00121
1.00087
1.00093
1.00024
1.0002
1.00108
1.00113
1.00049
0.885239
0.887271
0.934174
0.934351
0.963099
0.962793
0.987315
0.98517
0.985963
0.989642
0.989984
0.989988
0.990302
0.983884
0.981405
0.972133
0.979014
0.967623
0.968973
0.976682
0.98211
0.978959
0.978877
0.979917
0.978742
0.983983
0.981533
0.984444
0.981994
1.00004
0.999813
0.994184
0.991796
1.00025
0.999147
1.00013
1.00048
0.999507
1.00024
1.00034
0.999574
0.999658
0.984278
0.984037
0.976227
0.976037
0.97697
0.976715
0.978865
0.978376
0.97958
0.979836
0.976965
0.97714
0.986224
0.986457
0.990865
0.991044
0.999325
0.998008
0.999698
0.999633
0.999755
0.998555
0.998422
0.989192
0.989392
0.992544
0.989964
0.999403
0.999513
0.998703
0.998574
0.969995
0.973711
0.973964
0.973732
0.974769
0.975165
0.976099
0.974912
0.974627
0.979544
0.975754
0.977896
0.995292
0.995085
0.99202
0.992206
0.992937
0.993213
0.97998
0.983185
0.986316
0.98586
0.970226
0.969138
0.973053
0.979044
0.979413
0.973359
0.973892
0.95931
0.96661
0.934921
0.933019
0.930209
0.932771
0.857167
0.859261
0.756021
0.759335
0.914662
0.915716
0.829608
0.913466
0.975645
0.9761
0.961009
0.961758
0.943004
0.931001
0.938407
0.936967
0.964547
0.963721
0.972776
0.972093
0.976329
0.975987
0.99627
0.996103
0.988991
0.988926
0.993372
0.992788
0.992319
0.990068
0.989607
0.986844
0.986676
0.989195
0.991145
0.986143
0.985953
0.98566
0.985422
0.976155
0.976259
0.984675
0.983809
0.984437
0.986272
0.986134
0.986417
0.982931
0.980911
0.969907
0.970143
0.953605
0.955497
0.946637
0.95067
0.899997
0.902967
0.984423
0.992999
0.995854
1.00722
1.02473
0.991283
0.987548
0.984974
0.997519
0.999106
0.973119
1.00306
0.990314
0.863511
1.01436
0.999743
1.01626
1.03294
0.960533
0.987555
0.987303
1.0113
1.01365
0.989169
0.989813
1.00317
1.00594
0.992182
0.991766
0.987329
0.988711
0.982351
0.982684
1.00241
1.00348
1.00857
1.00861
1.0152
1.00454
1.01813
1.01198
1.00549
0.988897
0.989234
0.990467
0.995496
0.990161
1.00499
0.996619
1.00341
0.994817
0.982888
0.966214
0.9701
1.12472
1.02505
0.986995
0.98546
0.984071
0.994369
0.993582
0.990457
0.989679
0.987452
1.01118
0.987651
0.987929
0.991184
1.00803
1.03904
1.05858
0.997717
1.03316
1.25431
0.976615
0.969478
0.971543
0.974269
1.01413
1.01739
0.970771
0.983277
0.976506
1.00128
1.00021
0.992329
0.987818
1.00119
0.996934
0.996782
0.893494
0.895072
0.984008
0.988134
0.987111
0.987284
0.98261
0.988394
0.994933
0.994259
0.993164
0.992894
0.983167
0.982867
0.968777
0.969276
0.943977
0.942518
0.967078
0.966244
0.989129
0.989556
0.981856
0.982268
0.979436
0.979116
0.993193
0.992985
0.994569
0.994378
0.947218
0.945718
0.888098
0.975328
0.979777
1.00113
1.00408
1.00691
0.843557
0.841305
0.967849
0.99989
0.995046
0.988766
0.984684
0.998573
0.993684
0.966979
0.96399
0.998911
1.00124
0.976283
0.981358
0.952821
0.953369
0.755501
0.835889
0.845362
0.837271
0.988859
0.986712
0.958097
0.958732
0.956815
0.957459
0.975311
0.974659
0.978974
0.979551
0.993537
0.993637
0.996966
0.996406
0.967812
0.976941
0.992254
0.99209
0.993035
0.99303
0.9935
0.993488
1.00117
1.00111
0.99026
0.990197
0.986056
0.987142
0.986272
0.987421
0.985057
0.984269
0.98873
0.986256
0.986097
0.970402
0.909492
0.859575
0.935025
0.847123
0.947077
0.843493
1.001
1.0003
0.993979
0.994099
0.991066
0.991193
0.985849
0.985736
0.985489
0.985408
0.993735
0.994125
0.988195
0.988667
0.99397
0.993844
0.985761
0.986293
0.954455
0.954721
0.95037
0.951243
0.966151
0.963582
0.984485
0.987476
0.992176
0.992998
0.962208
0.960143
0.854304
1.15186
1.11785
1.10578
0.973464
0.976967
0.989204
0.989771
0.987893
0.987598
0.993728
0.99421
0.985301
0.993795
0.996984
0.997724
0.996556
0.99233
0.992338
0.995678
0.990869
0.982106
0.990942
0.934547
1.1936
1.10867
1.15241
1.04079
1.06116
1.16809
0.95194
0.988215
0.985562
0.987686
0.999455
1.00223
0.987263
1.00199
0.995802
0.969802
0.96601
0.990015
0.989203
0.988511
0.987853
1.00131
1.00134
0.98769
0.987832
1.00129
1.00176
0.990583
0.990502
0.998996
0.998825
0.832534
0.860526
0.891048
0.975565
0.952047
0.850045
0.874158
0.991325
0.991234
0.997058
0.997073
0.995816
0.995807
0.978405
0.9742
0.979479
0.989977
0.98994
0.991694
0.991743
0.980673
0.980833
0.981774
0.972497
0.979649
0.922141
0.924085
0.892346
0.877889
0.920097
0.958768
0.970144
0.977691
0.980412
0.981219
0.99311
0.99555
0.983117
0.983334
0.979427
0.979735
0.979657
0.980727
0.980581
0.983127
0.981467
0.989143
0.989464
0.987323
0.985127
0.992367
0.991674
0.990439
1.00191
1.00185
1.00251
1.00228
1.00113
1.00193
1.00212
1.00138
1.00133
1.00133
1.00137
0.999805
0.999612
1.00154
1.00149
1.00129
1.00133
1.00081
1.00053
1.00059
1.00071
1.00104
0.966959
0.967167
0.972701
0.972137
0.870979
0.87047
0.96513
0.965403
0.986389
0.986342
0.975391
0.975272
0.989547
0.989893
0.989138
0.989011
0.990416
0.990724
0.981313
0.983835
0.979088
0.979186
0.928545
0.886971
0.9676
0.968533
0.878104
0.882746
0.92096
0.951084
0.987861
0.990019
0.978594
0.979708
0.980679
0.982109
0.982578
0.98086
0.988824
0.991015
0.983751
0.981303
0.998237
0.998435
1.00012
0.99988
0.999741
0.998496
0.992789
0.995167
0.997264
0.997456
1.00062
1.00071
1.00025
0.999907
0.987459
0.987263
0.981361
0.981101
0.9769
0.975952
0.977112
0.977496
0.97685
0.977411
0.977938
0.976613
0.979372
0.979532
0.97817
0.97729
0.997691
0.997649
0.993455
0.993299
0.996159
0.996342
0.999919
1.00003
0.999237
0.999321
0.999816
0.999823
0.997051
0.997202
0.992011
0.991826
0.999071
0.998949
0.987939
0.988077
0.960705
0.96056
0.96224
0.975723
0.975404
0.975563
0.97662
0.982051
0.98521
0.978566
0.977221
0.975219
0.968031
0.967605
0.979481
0.979711
0.99183
0.993181
0.992916
0.992033
0.991485
0.946367
0.947152
0.990861
0.990535
0.987996
0.987592
0.983684
0.984073
0.978817
0.977558
0.975478
0.975108
0.979979
0.980323
0.977077
0.977513
0.952498
0.9514
0.861088
0.862017
0.790894
0.793886
0.703454
0.706893
0.916744
0.9177
0.939456
0.938533
0.937518
0.975521
0.975978
0.97296
0.973484
0.94387
0.944696
0.925626
0.92386
0.965714
0.965115
0.974568
0.975057
0.817171
0.814247
0.97776
0.988371
0.987275
0.992348
0.992516
0.98818
0.988044
0.987667
0.987263
0.994843
0.994635
0.98982
0.992092
0.994174
0.99444
0.987166
0.987007
0.99052
0.988645
0.992601
0.992508
0.987723
0.987905
0.985645
0.985847
0.915473
0.916353
0.964844
0.964858
0.985677
0.983439
0.98351
0.9843
0.986882
0.985197
0.982403
0.983956
0.981882