/*--------------------------------*- C++ -*----------------------------------*\
  =========                 |
  \\      /  F ield         | OpenFOAM: The Open Source CFD Toolbox
   \\    /   O peration     | Website:  https://openfoam.org
    \\  /    A nd           | Version:  7
     \\/     M anipulation  |
\*---------------------------------------------------------------------------*/
FoamFile
{
    version     2.0;
    format      ascii;
    class       volScalarField;
    location    "1800";
    object      T;
}
// * * * * * * * * * * * * * * * * * * * * * * * * * * * * * * * * * * * * * //

dimensions      [0 0 0 1 0 0 0];

internalField   nonuniform List<scalar> 
238806
(
0.0454809
0.0418403
0.15622
0.232322
0.200434
0.0314835
0.0349133
0.0309691
0.0332523
0.0958301
0.0886756
0.196156
0.0272233
0.0249134
0.299422
0.280719
0.112005
0.102147
0.0247416
0.0253194
0.0285453
0.0308696
0.22551
0.172775
0.231197
0.141503
0.134826
0.159891
0.181573
0.242375
0.0291558
0.0302529
0.0738522
0.0654204
0.0349606
0.0347441
0.744856
0.756611
0.08572
0.0770958
0.0803163
0.23094
0.034071
0.0340799
0.0248907
0.025307
0.120976
0.108368
0.0573581
0.0490686
0.0276853
0.0304582
0.026515
0.0242904
0.111226
0.11929
0.101538
0.1025
0.0917949
0.114619
0.104358
0.126953
0.0731135
0.066093
0.0616484
0.0286124
0.0247174
0.0355643
0.0483635
0.0331897
0.031025
0.0569375
0.0646713
0.045548
0.0531166
0.0271636
0.026036
0.0348918
0.0346407
0.0569736
0.0562715
0.0600418
0.0507606
0.0443748
0.0337774
0.0323681
0.0311789
0.163953
0.177368
0.15929
0.157793
0.095202
0.088562
0.0451089
0.0656466
0.036625
0.0364306
0.0793692
0.0923839
0.248979
0.0256885
0.0201441
0.0245093
0.0272583
0.0310694
0.0356072
0.0390356
0.0403459
0.0463034
0.0610295
0.0690793
0.031079
0.0280262
0.031017
0.0283463
0.0300172
0.0293336
0.887948
0.991472
0.954852
0.307814
0.382664
0.0348937
0.044145
0.031109
0.0346137
0.231398
0.310546
0.152401
0.197976
0.0823366
0.116466
0.137154
0.24459
0.130711
0.101666
0.0326845
0.0328829
0.232551
0.254045
0.211016
0.24971
0.069401
0.0689506
0.100477
0.0208645
0.0275011
0.0233184
0.0201153
0.0211479
0.0254729
0.020966
0.0219989
0.0484597
0.0540997
0.0351998
0.0394282
0.0532042
0.0605727
0.0282117
0.0301866
0.0276444
0.0263141
0.0238154
0.0214395
0.0300644
0.0295398
0.055514
0.0537538
0.562283
0.57624
0.0558486
0.0477941
0.39406
0.371067
0.585384
0.0344251
0.0444139
0.0294096
0.0263655
0.249941
0.339444
0.282665
0.137622
0.134743
0.124338
0.113321
0.169025
0.0455841
0.0456914
0.0261842
0.0261657
0.0788986
0.116785
0.101352
0.106129
0.0883331
0.225026
0.294412
0.177076
0.236386
0.0475525
0.033836
0.0408874
0.0549117
0.0380018
0.0510857
0.0359173
0.0344142
0.0242238
0.0208803
0.139455
0.151114
0.0573824
0.0634749
0.0673786
0.0602017
0.0959728
0.0837469
0.0494441
0.0427137
0.0273585
0.0300959
0.0259247
0.0262659
0.0216868
0.0241252
0.0332564
0.0329368
0.0553589
0.0546289
0.0687814
0.0678192
0.0917364
0.0902934
0.11364
0.115717
0.029181
0.0304783
0.122611
0.131162
0.405666
0.448839
0.0860836
0.0859532
0.0354665
0.043797
0.0256161
0.0283369
0.0260488
0.0258901
0.0490766
0.0468387
0.0958947
0.107264
0.119275
0.125027
0.0978958
0.0999512
0.0674067
0.0680722
0.0263715
0.026264
0.0353396
0.0372101
0.0366522
0.0383113
0.0842465
0.0764903
0.115351
0.125892
0.0771817
0.176879
0.156122
0.213477
0.183815
0.0344389
0.0480637
0.022477
0.0313812
0.0259071
0.0203911
0.0271741
0.0282015
0.0305066
0.0330377
0.0262258
0.0219361
0.0772369
0.0733554
0.113974
0.124803
0.0549228
0.0607364
0.0667658
0.0739492
0.0681911
0.0766224
0.0779712
0.0886862
0.049883
0.0567978
0.032148
0.0304618
0.0326153
0.0372269
0.0320187
0.0295595
0.0267015
0.025875
0.0328417
0.0351444
0.0305968
0.0335981
0.0223317
0.0227209
0.178521
0.178875
0.0590793
0.05831
0.0733
0.0744914
0.057143
0.0578897
0.105753
0.107994
0.119901
0.117739
0.939883
0.052549
0.0454079
0.300218
0.250962
0.190479
0.193489
0.0253906
0.0252096
0.202859
0.202038
0.0812236
0.102053
0.0308399
0.0342487
0.0259432
0.0288587
0.0281211
0.0324617
0.261286
0.23799
0.187367
0.255484
0.165689
0.168205
0.142634
0.157018
0.0288984
0.0294766
0.0257232
0.0341174
0.0342152
0.034578
0.0368167
0.0739351
0.0561776
0.110966
0.0761904
0.217656
0.191733
0.270201
0.0732741
0.0680474
0.145786
0.120507
0.268499
0.199032
0.157181
0.188591
0.0547521
0.0735103
0.104324
0.0710388
0.0280871
0.0246483
0.0477828
0.0650024
0.0442915
0.0600865
0.0373148
0.0388676
0.0419659
0.0445022
0.0311284
0.0274413
0.023429
0.020262
0.0332872
0.0311673
0.0207867
0.0232745
0.026104
0.0248986
0.137192
0.127528
0.0334026
0.0308544
0.0527554
0.0583028
0.0632778
0.0700275
0.0800813
0.0890336
0.099254
0.110404
0.0469796
0.0533755
0.029902
0.0315504
0.0314365
0.03547
0.0289725
0.0315375
0.022696
0.022107
0.0353862
0.0351398
0.0311386
0.0339571
0.0220303
0.0786598
0.0777772
0.0543147
0.0536486
0.0620921
0.0631522
0.0593609
0.0585887
0.0712558
0.0721447
0.078806
0.0775217
0.104732
0.106349
0.213115
0.246113
0.118818
0.117085
0.122416
0.108287
0.111389
0.0796117
0.0736805
0.358434
0.377168
0.289241
0.352993
0.109415
0.117317
0.0466657
0.0460768
0.170481
0.168398
0.643941
0.924809
0.362435
0.457718
0.112967
0.0879468
0.0251045
0.0292681
0.0325735
0.0354361
0.0263339
0.0418539
0.036288
0.0410805
0.160447
0.153679
0.207716
0.271164
0.116898
0.171617
0.129735
0.0445672
0.0639944
0.0244626
0.0324837
0.0244053
0.0243584
0.0360453
0.0376231
0.0307784
0.0313962
0.0337096
0.0341627
0.0529937
0.0496682
0.0697549
0.0589337
0.235757
0.113138
0.101978
0.140851
0.263003
0.261985
0.215577
0.269338
0.146698
0.140626
0.0638612
0.0689346
0.0652422
0.0926399
0.0347253
0.0479879
0.0259576
0.0258935
0.0246821
0.0357492
0.0293384
0.0215691
0.03281
0.0320536
0.0295449
0.0287929
0.0253719
0.025106
0.0308687
0.0331622
0.0223709
0.0290479
0.0316294
0.0335494
0.0224468
0.0267522
0.0216315
0.0211852
0.112857
0.117855
0.295731
0.234243
0.0363951
0.032953
0.0402502
0.0365387
0.0494971
0.0445777
0.0568891
0.0508746
0.0601561
0.0665523
0.0750968
0.0834045
0.0920119
0.102233
0.0413584
0.0366427
0.0444762
0.0503278
0.0324856
0.0342863
0.0272088
0.0273037
0.0304538
0.0339898
0.0418062
0.0355896
0.0332563
0.0311321
0.0280991
0.0320452
0.0222161
0.022009
0.021803
0.0218422
0.0351928
0.0354393
0.0231855
0.0237085
0.398697
0.405073
0.275918
0.268744
0.0576107
0.0569283
0.056286
0.0545229
0.0739786
0.0728529
0.114035
0.114695
0.111607
0.129733
0.0910449
0.093788
0.104159
0.102591
0.379616
0.38636
0.648338
0.662078
0.144807
0.142557
0.160653
0.149494
0.155031
0.176088
0.120444
0.172678
0.0988362
0.0908424
0.0642421
0.0725451
0.103332
0.0895851
0.239431
0.193964
0.0930558
0.0962973
0.512843
0.515115
0.097714
0.111765
0.0775139
0.0771645
0.780215
0.776701
0.574781
0.690558
0.943405
0.937987
0.075915
0.0943998
0.0599531
0.0611028
0.0245769
0.0248265
0.0263998
0.026066
0.0322715
0.0353213
0.0375452
0.0393555
0.043743
0.0413879
0.275124
0.373174
0.0709846
0.0650881
0.0932762
0.109364
0.125987
0.146605
0.202762
0.0441042
0.0616648
0.0948148
0.0922097
0.0245132
0.0324252
0.0330298
0.0330073
0.0363864
0.0378391
0.0253529
0.0260736
0.0349696
0.0370128
0.0330005
0.0349219
0.0558447
0.0578769
0.157891
0.187715
0.148453
0.238283
0.0843699
0.0781392
0.130505
0.138574
0.123321
0.0619164
0.0564135
0.108521
0.126926
0.300695
0.215241
0.0517219
0.0483397
0.0713179
0.104379
0.0246476
0.0282884
0.0515033
0.0704508
0.0287683
0.026447
0.028729
0.0333123
0.040134
0.0424005
0.0451589
0.027722
0.0280644
0.0248881
0.0247255
0.0205673
0.0242377
0.0393639
0.0361233
0.0234062
0.027582
0.0314235
0.0334184
0.0291887
0.0275352
0.0805607
0.0848325
0.11011
0.104425
0.192013
0.226633
0.12239
0.13627
0.0476619
0.0423358
0.0352167
0.0321024
0.0416843
0.0376476
0.0430435
0.0476336
0.0600159
0.0536301
0.0706756
0.0783793
0.0857053
0.0952637
0.0436308
0.0383444
0.0293808
0.031081
0.0280058
0.0296544
0.0266208
0.0284847
0.0339979
0.0393174
0.0281382
0.0266651
0.0342068
0.0338339
0.021761
0.0219593
0.0212684
0.0253719
0.0246717
0.0356984
0.035631
0.0238853
0.0232823
0.0258196
0.0251545
0.0371548
0.0380134
0.674265
0.628914
0.653887
0.655311
0.0513087
0.0517863
0.0570071
0.0579977
0.0633514
0.0623675
0.0570885
0.0563555
0.0767485
0.0774983
0.115381
0.132192
0.0778321
0.080589
0.0886549
0.0874608
0.0696578
0.0686367
0.0772431
0.076148
0.101587
0.103147
0.247195
0.242956
0.294924
0.288179
0.399366
0.405716
0.977663
0.984048
0.305462
0.316428
0.145073
0.147181
0.976581
0.965405
0.930612
0.102568
0.121519
0.0771088
0.0684042
0.0847751
0.0284048
0.02861
0.111907
0.119431
0.105468
0.0961524
0.0510506
0.0462089
0.0672022
0.0598958
0.161827
0.17372
0.161763
0.158127
0.0401388
0.0409632
0.137923
0.140689
0.0976176
0.1011
0.122912
0.131974
0.30493
0.375355
0.0345267
0.0340645
0.0481541
0.0473552
0.0631008
0.062774
0.0769005
0.0767127
0.202068
0.202142
0.385738
0.239902
0.333544
0.242143
0.239103
0.0711886
0.076888
0.0854122
0.108459
0.0308043
0.0317503
0.0335575
0.0295393
0.0250882
0.0259283
0.0278357
0.0250909
0.0358091
0.0334536
0.0412868
0.0336931
0.0511326
0.0542923
0.148985
0.191148
0.0586356
0.0547741
0.127071
0.106301
0.141592
0.186323
0.0621202
0.0439165
0.114206
0.165286
0.0349547
0.0351354
0.0244258
0.0244498
0.0356986
0.0374146
0.0267909
0.0275033
0.0614342
0.0473185
0.046376
0.0430226
0.0398402
0.0415572
0.157401
0.127687
0.16148
0.265799
0.33342
0.27926
0.0754877
0.0701044
0.0957299
0.0893447
0.18079
0.224237
0.08582
0.0920684
0.164078
0.13072
0.154777
0.154433
0.0342868
0.0458642
0.0708465
0.10501
0.033542
0.0235305
0.0325381
0.0298849
0.0280723
0.0305509
0.0318018
0.0312536
0.0314317
0.032794
0.0295452
0.0271073
0.0216374
0.0318037
0.0336841
0.0225374
0.0208275
0.108289
0.103695
0.123706
0.130708
0.202908
0.171034
0.118406
0.1089
0.140423
0.0377878
0.0339786
0.0304313
0.0327278
0.0516453
0.0463722
0.0567359
0.0634931
0.0822402
0.0728075
0.0320566
0.0339612
0.0279152
0.0289786
0.0276647
0.0273188
0.0267442
0.0272981
0.0292139
0.0268871
0.0286357
0.0270633
0.0290355
0.0326468
0.0328796
0.0338152
0.0319421
0.0278859
0.0213861
0.0226982
0.0241755
0.0359685
0.0358744
0.026702
0.0260481
0.0286572
0.027999
0.186456
0.234647
0.679074
0.633264
0.2475
0.178648
0.262512
0.178346
0.0442501
0.0436187
0.0585767
0.0576607
0.0627497
0.0618428
0.0577516
0.0585348
0.071741
0.0721213
0.159333
0.133043
0.117541
0.134601
0.0746482
0.0772226
0.0912808
0.0928053
0.126913
0.14609
0.0728467
0.0739702
0.0712128
0.0701306
0.0681885
0.0672609
0.0850552
0.0862894
0.0839458
0.0826332
0.101052
0.099536
0.0883852
0.0920419
0.251954
0.218131
0.503012
0.4954
0.931391
0.93908
0.236342
0.230792
0.169733
0.172066
0.146274
0.143934
0.17848
0.170597
0.136187
0.131822
0.0433551
0.0446422
0.0368712
0.130157
0.145649
0.132979
0.157352
0.173765
0.165033
0.0481339
0.0490626
0.0401552
0.037756
0.110928
0.101627
0.0883288
0.0815455
0.0698138
0.0795124
0.246489
0.237248
0.181939
0.22441
0.0258624
0.0251412
0.0409426
0.0418124
0.441784
0.450687
0.100743
0.107843
0.102765
0.0991951
0.107617
0.115362
0.261481
0.227109
0.170555
0.19783
0.0269603
0.0263932
0.0481953
0.0441692
0.04762
0.0444001
0.029793
0.0294442
0.0501436
0.0508245
0.0863135
0.086629
0.143307
0.14294
0.757272
0.736746
0.16846
0.168211
0.332234
0.279548
0.0580965
0.0558379
0.0346867
0.033725
0.0250692
0.0285351
0.0273356
0.0268514
0.0331502
0.0356687
0.058368
0.0625044
0.0343815
0.0291547
0.207431
0.166574
0.196913
0.163867
0.128455
0.0721198
0.066746
0.0955359
0.0860084
0.212457
0.161895
0.128376
0.157094
0.112257
0.170034
0.0909032
0.0343513
0.0344644
0.0250614
0.0329974
0.0284937
0.0271178
0.0288862
0.0325371
0.0301307
0.0294368
0.0610037
0.0811991
0.0947775
0.0776701
0.0855473
0.110171
0.120204
0.133048
0.110009
0.140904
0.128937
0.149773
0.0646721
0.0564528
0.0599206
0.0670237
0.0620537
0.0852408
0.0790582
0.146411
0.17348
0.112488
0.138152
0.182931
0.0246716
0.0277203
0.0472544
0.0346818
0.0315777
0.0320904
0.0288665
0.0319119
0.0270323
0.0258983
0.0552366
0.0592442
0.0333002
0.0351413
0.0214426
0.0256405
0.0300764
0.032917
0.0271945
0.0229331
0.0915414
0.087633
0.114492
0.107078
0.11992
0.113622
0.277841
0.377098
0.105484
0.0984026
0.144494
0.163289
0.0405115
0.045353
0.0342266
0.0314075
0.0717171
0.0640107
0.0351599
0.0336723
0.0289795
0.0280844
0.0271958
0.026992
0.0296527
0.0327505
0.0306381
0.0328742
0.0291304
0.02749
0.0323968
0.0285804
0.0339419
0.0332153
0.0282625
0.0321405
0.0213219
0.0232086
0.0347322
0.0322622
0.0362494
0.0361101
0.0245069
0.0273478
0.230579
0.184051
0.243581
0.178955
0.178426
0.178336
0.183388
0.185854
0.0678143
0.0618897
0.0421068
0.0429063
0.0567544
0.0560274
0.0589998
0.0600158
0.0613984
0.0610465
0.0547691
0.0540655
0.0678993
0.0669396
0.0950941
0.0955263
0.13241
0.158746
0.0617075
0.0627251
0.0798444
0.08067
0.083551
0.0845629
0.0748518
0.15582
0.153112
0.150516
0.148128
0.110638
0.071251
0.072274
0.075135
0.0739732
0.0676282
0.0663822
0.0925051
0.0941494
0.0955791
0.0970434
0.0772658
0.0761656
0.080282
0.079089
0.0980753
0.0966103
0.182633
0.179948
0.0837304
0.0813339
0.240302
0.245259
0.350833
0.358415
0.487766
0.392915
0.917509
0.922356
0.83873
0.848665
0.479805
0.487677
0.151266
0.153303
0.0918244
0.0894846
0.141933
0.131787
0.176635
0.184896
0.15213
0.163461
0.169316
0.159262
0.871615
0.984806
0.0654623
0.0540724
0.135638
0.116063
0.100513
0.0963217
0.158025
0.161995
0.130586
0.107925
0.140361
0.0267301
0.0297774
0.0231294
0.0223963
0.127156
0.133503
0.117557
0.086568
0.0948734
0.0908208
0.101575
0.234382
0.170087
0.144679
0.173859
0.190999
0.264185
0.26364
0.0781595
0.0656778
0.0400763
0.0392248
0.133073
0.121293
0.171359
0.176945
0.151597
0.152527
0.177269
0.151829
0.104444
0.100794
0.256889
0.220774
0.201589
0.173851
0.0334608
0.0327197
0.0267224
0.0262344
0.0438056
0.0478483
0.695021
0.691299
0.616651
0.69346
0.128822
0.149759
0.0516193
0.0525414
0.0691406
0.0689493
0.143918
0.144638
0.126743
0.12614
0.773135
0.766512
0.201699
0.203126
0.0462278
0.0435253
0.0707434
0.0886597
0.0270171
0.0261489
0.0260614
0.026566
0.0251862
0.0272252
0.0328584
0.0355452
0.0662798
0.0520387
0.0359413
0.0301264
0.115979
0.103032
0.115676
0.0802992
0.0919183
0.0832779
0.0627131
0.083484
0.0758029
0.11546
0.108464
0.0899987
0.0890602
0.0265189
0.0267475
0.0302015
0.0335851
0.0319779
0.0282018
0.025246
0.0258219
0.0285997
0.0307974
0.0714225
0.0659445
0.100811
0.108318
0.0924481
0.0895103
0.0822066
0.0904353
0.094299
0.111006
0.0939936
0.100338
0.165285
0.221884
0.262325
0.215352
0.255081
0.0596612
0.0491719
0.053779
0.0818948
0.0726362
0.106488
0.100471
0.11239
0.148665
0.129172
0.196845
0.149662
0.119527
0.146137
0.0246614
0.0279009
0.0319276
0.032172
0.031335
0.0325136
0.0312701
0.0265166
0.020162
0.0284395
0.03165
0.0256528
0.0264496
0.0476992
0.0514171
0.0265543
0.0261475
0.0249696
0.0209682
0.083982
0.0803412
0.0996914
0.108531
0.101052
0.095964
0.157008
0.137079
0.236586
0.224052
0.283954
0.382554
0.168138
0.204805
0.188193
0.130606
0.0389607
0.0433715
0.0333138
0.0348972
0.0277727
0.0285191
0.027911
0.0292556
0.0275351
0.0265835
0.0290219
0.0317194
0.0301154
0.0324638
0.0343645
0.0341169
0.0340729
0.0335333
0.021426
0.023945
0.0343363
0.0316929
0.0540699
0.0531224
0.129331
0.156058
0.142478
0.144731
0.505094
0.52337
0.554831
0.540076
0.340007
0.321815
0.0577721
0.0606054
0.0470991
0.047837
0.0431396
0.0436515
0.0473566
0.0466764
0.0583879
0.0575607
0.0598459
0.0590729
0.060444
0.0595038
0.0609535
0.0525688
0.0518681
0.055491
0.0642271
0.065316
0.0698025
0.0709556
0.729299
0.734277
0.070743
0.0697567
0.0652189
0.0622347
0.624425
0.660289
0.0783043
0.0712451
0.0597117
0.0587346
0.0646486
0.0635932
0.0823021
0.08325
0.0873692
0.0885893
0.104918
0.106961
0.12773
0.109705
0.0861652
0.0792484
0.0734305
0.0746106
0.067336
0.0682973
0.0886549
0.0899594
0.0951558
0.0923214
0.0772211
0.0783219
0.0852231
0.0814674
0.0985345
0.100051
0.102596
0.101064
0.104053
0.105568
0.116867
0.114816
0.0839737
0.0866792
0.0880352
0.125463
0.127503
0.185332
0.180923
0.428577
0.417823
0.605803
0.616365
0.88709
0.879137
0.900947
0.894343
0.970044
0.965908
0.641375
0.833621
0.334755
0.328182
0.354219
0.36601
0.119347
0.117609
0.129042
0.121395
0.162129
0.169606
0.107715
0.109637
0.157443
0.169163
0.173584
0.181645
0.214194
0.202935
0.197824
0.193943
0.981557
0.97339
0.143952
0.165336
0.111326
0.103716
0.096207
0.114397
0.101295
0.13816
0.12496
0.147552
0.183118
0.0882511
0.0481608
0.0456769
0.0226474
0.0254606
0.0236063
0.020442
0.0356455
0.0279694
0.106963
0.116544
0.0500213
0.0440389
0.0833466
0.0750248
0.106867
0.100616
0.0864725
0.140467
0.124129
0.138711
0.223021
0.131929
0.113867
0.1339
0.569996
0.457048
0.0249993
0.0244969
0.0608148
0.0598002
0.106401
0.108317
0.189203
0.185752
0.167863
0.173423
0.157411
0.154944
0.377199
0.593338
0.154564
0.180494
0.105853
0.113439
0.116892
0.125442
0.221456
0.187665
0.380721
0.386423
0.184419
0.213496
0.244296
0.24964
0.0289
0.0281676
0.0257852
0.0253918
0.034147
0.0343903
0.0418582
0.042458
0.675233
0.667953
0.67399
0.148067
0.127725
0.0304706
0.0308196
0.0653065
0.0645985
0.0625181
0.0623248
0.109869
0.109999
0.784723
0.784562
0.10737
0.105478
0.167233
0.167122
0.344275
0.355959
0.43897
0.605519
0.0373383
0.0352576
0.0652052
0.0829494
0.024631
0.0277474
0.02774
0.0287052
0.0253622
0.0267203
0.0319123
0.0351477
0.0491372
0.04633
0.31134
0.420524
0.14054
0.0772305
0.062838
0.0441336
0.0330711
0.0295545
0.0270702
0.0397167
0.0364776
0.100573
0.0891645
0.169548
0.208972
0.220749
0.0776211
0.0672404
0.0785044
0.119681
0.200908
0.226759
0.307653
0.33358
0.407791
0.0637581
0.0521565
0.08913
0.0978958
0.104071
0.0927824
0.12177
0.0962274
0.0907154
0.181401
0.107767
0.0326672
0.0260193
0.0301206
0.0611875
0.0839831
0.0315722
0.0317898
0.0243674
0.0186061
0.0326638
0.0311105
0.0209043
0.0273671
0.0258808
0.0256714
0.0293286
0.0322037
0.0399635
0.0377707
0.0865961
0.08164
0.0699284
0.0668974
0.0771038
0.0841521
0.091642
0.116927
0.125338
0.150563
0.167719
0.538087
0.457115
0.18612
0.101361
0.112093
0.15398
0.0279426
0.0296246
0.0329018
0.0345993
0.028006
0.0288136
0.0279255
0.0265309
0.0345451
0.0343839
0.0219452
0.0243873
0.0996261
0.100783
0.0463484
0.0447947
0.0687434
0.0677293
0.0634681
0.0624694
0.0889384
0.0902168
0.655052
0.556929
0.442832
0.464999
0.256883
0.251961
0.526311
0.139549
0.137291
0.0585815
0.0558917
0.0635248
0.0646373
0.0866623
0.0851661
0.0462121
0.04556
0.0434713
0.0426768
0.0535714
0.0519791
0.055855
0.0549603
0.0567411
0.0598717
0.0583264
0.0600819
0.0592275
0.0508071
0.0501011
0.0601531
0.0578407
0.0686366
0.0676867
0.0706436
0.0695601
0.24529
0.24715
0.0730497
0.0739743
0.0844893
0.085454
0.0697278
0.130712
0.157219
0.101376
0.103217
0.059826
0.0607122
0.0637657
0.0680874
0.0786403
0.0794037
0.066171
0.0689428
0.0817761
0.0805908
0.0860867
0.0872329
0.0853833
0.166475
0.163825
0.132325
0.135112
0.0804824
0.0817009
0.0820488
0.0803805
0.0723145
0.0763135
0.0756445
0.0747029
0.0912239
0.0927387
0.0900382
0.0817585
0.0829386
0.0750839
0.0740458
0.0783503
0.0980471
0.0965797
0.0944884
0.093107
0.0995574
0.150247
0.178968
0.133202
0.130915
0.0961572
0.104922
0.0913845
0.0896261
0.210264
0.213792
0.729087
0.888556
0.407903
0.497997
0.474544
0.349504
0.34154
0.365682
0.372801
0.480071
0.472223
0.871747
0.671332
0.954175
0.951006
0.827397
0.821557
0.97427
0.927341
0.461549
0.466051
0.393793
0.386561
0.220431
0.226302
0.104387
0.10595
0.0866631
0.0880598
0.148279
0.139993
0.152229
0.14716
0.11415
0.111902
0.134357
0.144728
0.131454
0.122458
0.289045
0.285024
0.179743
0.188236
0.133774
0.129355
0.189116
0.174753
0.353191
0.345969
0.948395
0.787119
0.873999
0.0421801
0.0414365
0.0267213
0.0273131
0.075842
0.0671374
0.0701255
0.0897408
0.178903
0.218718
0.0909173
0.178566
0.172802
0.172664
0.0465999
0.0475891
0.0288095
0.0257771
0.0211572
0.0213905
0.0279967
0.0317827
0.0203836
0.0205772
0.0413191
0.0311804
0.137369
0.184802
0.0667012
0.0603314
0.047905
0.042705
0.117614
0.104549
0.0936933
0.0775237
0.088646
0.074513
0.0923609
0.098509
0.140202
0.116196
0.15153
0.0254998
0.023424
0.0275917
0.144859
0.113142
0.0932522
0.0385653
0.0393395
0.051114
0.0487471
0.0538389
0.0528369
0.162868
0.196604
0.173126
0.170016
0.162339
0.159361
0.172991
0.178744
0.157215
0.160033
0.153973
0.1564
0.0841737
0.0845999
0.157324
0.18378
0.119893
0.137494
0.10413
0.111554
0.103515
0.107046
0.120875
0.129757
0.180298
0.194075
0.376753
0.378553
0.900365
0.902232
0.291262
0.368538
0.300115
0.376317
0.41225
0.424514
0.304305
0.315854
0.0304325
0.0296676
0.0256435
0.0259535
0.0333203
0.0329937
0.0409185
0.0403472
0.056397
0.0516325
0.077363
0.0876564
0.111098
0.0973523
0.0429206
0.0434568
0.0753501
0.0780729
0.0568401
0.0566784
0.0694094
0.0697498
0.125288
0.125653
0.784038
0.782152
0.132246
0.134325
0.113119
0.112264
0.167777
0.167475
0.362741
0.369407
0.0464894
0.0451679
0.0432769
0.0355247
0.0404191
0.0600367
0.0556405
0.0248396
0.0284387
0.0278308
0.234688
0.0442682
0.0466555
0.0316336
0.0345435
0.0324662
0.0515181
0.0669235
0.0440909
0.0473457
0.0974043
0.134176
0.205332
0.0989245
0.17381
0.394309
0.525752
0.136174
0.164642
0.320969
0.0473584
0.0447629
0.114547
0.127742
0.107034
0.0965714
0.120302
0.132245
0.187044
0.151591
0.153621
0.0328509
0.026265
0.0577435
0.0781254
0.03183
0.0316991
0.0187582
0.0245165
0.0225889
0.0289179
0.0323228
0.0314337
0.0260436
0.0258041
0.0880772
0.0927032
0.064204
0.0704606
0.0953608
0.0995759
0.124044
0.136288
0.325499
0.245693
0.0921652
0.0301159
0.0284104
0.031604
0.0336172
0.0275094
0.0280674
0.0322235
0.0282883
0.0852982
0.0862997
0.0385633
0.0371627
0.0482804
0.0480551
0.059797
0.0599138
0.154179
0.180373
0.0452289
0.0446185
0.154618
0.154749
0.0489265
0.0484425
0.111594
0.112185
0.237027
0.17985
0.488699
0.477215
0.651228
0.485617
0.513177
0.500753
0.161338
0.158899
0.057595
0.0549746
0.0595846
0.0568243
0.0950314
0.0932413
0.0526266
0.0518737
0.0489738
0.0482836
0.0425266
0.0419312
0.0510355
0.0515235
0.0440638
0.0456055
0.0560903
0.0549769
0.054087
0.0550552
0.060687
0.0615239
0.053283
0.0515234
0.0632587
0.0623813
0.0698632
0.0708679
0.0695583
0.0685398
0.58303
0.592895
0.210066
0.211802
0.0783108
0.0791787
0.0660835
0.0630909
0.0628811
0.0598137
0.157687
0.131242
0.181324
0.186215
0.10285
0.118
0.0597595
0.0589206
0.0657682
0.0616425
0.0617999
0.0644035
0.0655503
0.0645043
0.0708445
0.0680015
0.0794565
0.0767613
0.0794172
0.081065
0.0828588
0.0799729
0.0848138
0.0858906
0.0798343
0.0784995
0.143049
0.145582
0.114375
0.117052
0.139384
0.121775
0.0692666
0.0702503
0.0758593
0.0771741
0.0720079
0.0710267
0.0726605
0.0717327
0.0899375
0.0913411
0.0890347
0.0903415
0.0740392
0.0730116
0.0904051
0.0890648
0.0951613
0.0937223
0.0917476
0.095964
0.11485
0.116469
0.140483
0.141518
0.118943
0.13542
0.100314
0.108866
0.0851546
0.0826273
0.13143
0.133568
0.170127
0.173413
0.308037
0.296984
0.184149
0.179861
0.258257
0.223476
0.367334
0.358049
0.930927
0.925647
0.46427
0.455712
0.663281
0.655457
0.679781
0.688684
0.458369
0.471457
0.63293
0.625047
0.315301
0.308746
0.287471
0.281392
0.245524
0.25564
0.226287
0.236464
0.0869116
0.0875067
0.0999472
0.0984825
0.0903092
0.0888386
0.131389
0.123537
0.147811
0.149628
0.122512
0.119997
0.136885
0.147405
0.115919
0.11379
0.136238
0.133831
0.115618
0.111612
0.166299
0.154786
0.154993
0.145786
0.178912
0.19323
0.198981
0.194312
0.443722
0.578727
0.383264
0.327531
0.780994
0.0408262
0.0452703
0.29986
0.34329
0.0305066
0.0289903
0.198503
0.236764
0.0478913
0.0569681
0.0851316
0.0783463
0.0815608
0.0884821
0.0885859
0.0766398
0.136569
0.11802
0.167176
0.172599
0.0984782
0.0941802
0.0251513
0.0259236
0.0357029
0.0308865
0.0223806
0.0228551
0.0333503
0.0331569
0.0318888
0.0320832
0.0241437
0.0206494
0.0231706
0.0243702
0.069516
0.101951
0.0304818
0.0430742
0.140796
0.1828
0.0531581
0.0558111
0.0512917
0.0414441
0.0914948
0.0818461
0.0773993
0.0651827
0.0619253
0.0665583
0.0745371
0.0842465
0.180665
0.179931
0.227663
0.253371
0.292107
0.149101
0.188325
0.0304207
0.032157
0.140984
0.142893
0.0881995
0.091897
0.0267457
0.0255956
0.0386034
0.0377082
0.043658
0.0445082
0.355123
0.374388
0.0346995
0.0335002
0.160106
0.1575
0.11073
0.109189
0.137123
0.135074
0.315912
0.322967
0.333195
0.326831
0.16856
0.165075
0.162933
0.165921
0.118476
0.116783
0.227655
0.193711
0.107046
0.123882
0.088306
0.0887253
0.272233
0.255448
0.218682
0.213927
0.0978757
0.0945516
0.102418
0.10968
0.132586
0.152562
0.105353
0.101877
0.118857
0.127574
0.138744
0.149134
0.242485
0.20736
0.512826
0.5139
0.127753
0.134968
0.286186
0.362766
0.296093
0.373302
0.259057
0.165812
0.169227
0.297824
0.309009
0.027581
0.0282239
0.0411303
0.0390117
0.0350232
0.0345987
0.0470548
0.0463827
0.0474012
0.0479761
0.0475951
0.0440841
0.0476208
0.0442173
0.0618404
0.0689044
0.113595
0.0987897
0.544018
0.73385
0.174372
0.217785
0.0443713
0.0448769
0.0828739
0.085651
0.0448305
0.044563
0.0791772
0.0799746
0.0640031
0.0635061
0.0969442
0.0968978
0.207488
0.209869
0.202817
0.203489
0.372566
0.377195
0.116653
0.118273
0.128351
0.127472
0.202001
0.201822
0.73681
0.63503
0.334318
0.0495574
0.05328
0.0383247
0.0368955
0.0260046
0.0251365
0.0357936
0.0355189
0.0342806
0.106407
0.0890354
0.0852466
0.0641447
0.0536741
0.128709
0.645216
0.559218
0.298267
0.257445
0.243759
0.293329
0.0688414
0.0732788
0.0838268
0.0778959
0.171272
0.101076
0.0272544
0.024728
0.0399616
0.0374614
0.0443121
0.0428124
0.0195378
0.0256896
0.0313615
0.0318626
0.0281798
0.0217237
0.0896448
0.0950828
0.073429
0.0767781
0.152405
0.180641
0.0305953
0.0288865
0.0778492
0.0768669
0.0299302
0.0301277
0.0376404
0.0371969
0.0429765
0.0423754
0.0531822
0.0521603
0.0668044
0.0648388
0.731894
0.648901
0.420504
0.428346
0.055983
0.0568289
0.0440173
0.06728
0.0703556
0.128949
0.155756
0.111113
0.111642
0.0667025
0.0664893
0.110405
0.0966119
0.130399
0.158537
0.234373
0.18041
0.240095
0.179357
0.647152
0.641333
0.137219
0.139363
0.0904922
0.0891883
0.0566257
0.0540728
0.0624321
0.084144
0.0857315
0.081775
0.0832968
0.0573001
0.0564664
0.0508905
0.0502888
0.0446506
0.0438742
0.0430399
0.0424249
0.0485942
0.0492337
0.0497082
0.0491114
0.0562739
0.0556312
0.0559272
0.0551174
0.0578665
0.056098
0.0529972
0.0522541
0.0593965
0.0586105
0.0640352
0.0631604
0.0646156
0.0636741
0.0675339
0.0686618
0.0658312
0.0649254
0.0705916
0.546009
0.53879
0.393616
0.393221
0.248944
0.250775
0.0805889
0.0879496
0.0860207
0.0670181
0.0639788
0.0636328
0.0606016
0.0858647
0.0977265
0.164589
0.147064
0.227318
0.183346
0.147001
0.130309
0.092396
0.0941407
0.0725179
0.0797381
0.064851
0.0692747
0.0626961
0.0669187
0.0762768
0.0769173
0.0664574
0.0654211
0.0698881
0.0670808
0.078334
0.075699
0.0819516
0.0768804
0.0758647
0.0841756
0.0829728
0.0811175
0.0823937
0.124201
0.126448
0.0945098
0.0962304
0.0841243
0.0866459
0.123705
0.141696
0.0977524
0.0965157
0.0717539
0.0706917
0.0700666
0.069121
0.076574
0.0735987
0.0844676
0.0829887
0.0811271
0.0864851
0.0877529
0.0795465
0.0783926
0.0761427
0.0750903
0.0877069
0.0862823
0.0973973
0.0988551
0.181056
0.151847
0.122728
0.123005
0.177208
0.174508
0.102945
0.109998
0.111665
0.0934125
0.10305
0.094411
0.130937
0.132917
0.10542
0.103742
0.153051
0.150594
0.125834
0.123965
0.21204
0.216131
0.202626
0.201404
0.196701
0.165208
0.161581
0.193617
0.189272
0.265072
0.229226
0.439868
0.451498
0.446219
0.433593
0.648289
0.640819
0.865155
0.859307
0.546991
0.539402
0.738868
0.555319
0.199694
0.194877
0.269414
0.263292
0.379617
0.472456
0.415358
0.428369
0.270146
0.280575
0.231162
0.241196
0.147065
0.127824
0.110667
0.11234
0.0778035
0.0763673
0.137451
0.145599
0.13593
0.140712
0.148618
0.0971355
0.0987871
0.13936
0.149999
0.104007
0.105837
0.124701
0.126976
0.143141
0.141409
0.15102
0.141218
0.167264
0.182057
0.207153
0.218605
0.219993
0.205519
0.332321
0.339278
0.352204
0.295354
0.372138
0.318145
0.587205
0.577663
0.0327266
0.0292729
0.0308971
0.209435
0.257215
0.0367211
0.0391643
0.0335239
0.0404296
0.072582
0.0578881
0.0816989
0.0715845
0.18684
0.194181
0.17353
0.201956
0.157382
0.0634206
0.058934
0.0586071
0.0399743
0.0392586
0.0407209
0.043019
0.0330898
0.0357336
0.0480875
0.0453573
0.0283848
0.0272508
0.0238925
0.0223897
0.0281145
0.0288871
0.0288729
0.0291779
0.0335392
0.0319572
0.0322927
0.0319
0.0308084
0.0223234
0.0223674
0.0225737
0.0408804
0.0511465
0.0472435
0.0532965
0.0521406
0.0418839
0.0310677
0.0739355
0.0786505
0.351433
0.246478
0.0710332
0.0781517
0.048866
0.0467573
0.0447397
0.0563816
0.0534174
0.105869
0.121554
0.05426
0.058229
0.104392
0.112401
0.173739
0.285718
0.672892
0.557097
0.176909
0.0404335
0.029505
0.0700846
0.0922688
0.180536
0.180278
0.0778229
0.0657559
0.073084
0.0358528
0.0375581
0.0322402
0.0300852
0.0394974
0.106538
0.108175
0.599175
0.591331
0.0342663
0.0356756
0.0589499
0.0579948
0.0836389
0.0909103
0.107665
0.111012
0.133805
0.135753
0.123146
0.125044
0.216416
0.212581
0.367233
0.375003
0.187332
0.193507
0.206227
0.20264
0.181019
0.177816
0.127131
0.12954
0.121997
0.123816
0.125366
0.127206
0.314881
0.366597
0.582567
0.135548
0.116869
0.087446
0.0991065
0.106042
0.71274
0.701913
0.223522
0.0994714
0.0960697
0.105187
0.108781
0.113391
0.109283
0.190827
0.225393
0.157629
0.169568
0.18175
0.176215
0.307693
0.303515
0.89716
0.734228
0.692465
0.714422
0.122172
0.115387
0.244988
0.240579
0.253877
0.249457
0.192888
0.200393
0.267051
0.261322
0.0284157
0.0290335
0.0319627
0.0312052
0.169679
0.196948
0.0386085
0.0407572
0.0344685
0.0341531
0.0341908
0.0338028
0.048765
0.0494467
0.0448197
0.0453891
0.0476089
0.0440549
0.0475947
0.0441365
0.0686824
0.0618774
0.0871606
0.0770593
0.13548
0.156777
0.57916
0.714661
0.485518
0.76166
0.441884
0.777006
0.0333425
0.0326741
0.0294522
0.0296395
0.0362774
0.0364025
0.0501114
0.0490721
0.0483544
0.0486794
0.0882334
0.0890145
0.0701827
0.0707097
0.0981559
0.0976868
0.124941
0.125051
0.170099
0.171246
0.167087
0.16722
0.381104
0.386916
0.1121
0.109563
0.103872
0.102494
0.143796
0.144426
0.60182
0.528138
0.415333
0.574877
0.125574
0.113518
0.0422844
0.0406571
0.0707541
0.0658462
0.0232499
0.0235232
0.0210919
0.0220753
0.0217367
0.0297502
0.0300961
0.101459
0.121869
0.0667164
0.060217
0.0595635
0.0500413
0.513372
0.468918
0.3719
0.507107
0.193149
0.225198
0.378797
0.121177