/*--------------------------------*- C++ -*----------------------------------*\
  =========                 |
  \\      /  F ield         | OpenFOAM: The Open Source CFD Toolbox
   \\    /   O peration     | Website:  https://openfoam.org
    \\  /    A nd           | Version:  7
     \\/     M anipulation  |
\*---------------------------------------------------------------------------*/
FoamFile
{
    version     2.0;
    format      ascii;
    class       volScalarField;
    location    "2220";
    object      T;
}
// * * * * * * * * * * * * * * * * * * * * * * * * * * * * * * * * * * * * * //

dimensions      [0 0 0 1 0 0 0];

internalField   nonuniform List<scalar> 
238806
(
0.000971945
0.000906563
0.00238229
0.00345952
0.00300819
-6.68578e-05
-0.000169597
0.000668287
0.000725802
0.00172331
0.00165306
0.00296775
-7.90402e-05
-9.54477e-08
0.00414296
0.00392019
0.00191773
0.00180212
0.000477936
0.000117281
0.000544292
0.00067875
0.0032655
0.00259247
0.00334968
0.00222096
0.00215708
0.00244808
0.00288924
0.00364176
-7.65207e-05
-0.000116272
0.00158741
0.00147307
-0.000221549
-0.000221229
0.0177723
0.0181179
0.00162304
0.00153391
0.00157131
0.00340738
-0.000143551
-0.000144963
0.000168191
0.000514496
0.00214585
0.00199769
0.00134817
0.00120089
6.00937e-05
-7.49519e-05
-6.4948e-05
1.96433e-05
0.000277186
0.000132534
0.00178317
0.00178096
0.00168579
0.00191895
0.00181541
0.00209506
0.00155702
0.00146841
0.00140725
-5.36767e-05
0.000198975
0.000778946
0.00102164
0.000719654
0.000663799
0.00133769
0.00145862
0.00112973
0.00127376
0.000146318
0.000295956
-0.000200391
-0.000198404
0.000659106
0.000531927
0.00130924
0.00118132
0.00104865
0.000794478
0.000736065
0.000690471
0.00249241
0.00265979
0.00244577
0.00242572
0.00174256
0.00166245
0.00106608
0.00137612
-0.000202578
-0.000202464
0.00166092
0.0018121
0.00379752
0.000535931
0.000214015
0.000471455
3.68634e-05
-0.000136979
0.000831753
0.000935934
0.00100794
0.00114042
0.0014056
0.00152282
0.000728014
0.00056893
-9.15455e-05
2.92745e-05
-0.000142543
-0.00013356
0.0365947
0.0579802
0.0502023
0.00378525
0.00460413
0.000824881
0.00104269
-5.84627e-05
-0.000163606
0.00332519
0.00424451
0.00236531
0.00293652
0.00159421
0.00194496
0.00218381
0.00357104
0.00210224
0.00179695
0.000763015
0.000770162
0.00333778
0.00373658
0.00320867
0.00373201
0.00153171
0.00153569
0.00192541
0.000301936
0.000574937
0.00041998
0.000173119
0.000278242
0.000498828
0.000142315
0.000320032
0.00116536
0.00127075
0.000852231
0.000974259
0.00127136
0.0013944
0.000503944
0.000636032
0.000114386
0.000257158
-3.9255e-05
9.63913e-05
-0.000162001
-0.000156273
0.000162589
0.000257408
0.00377547
0.00386863
0.00125299
0.0011344
-0.0168597
-0.0106945
0.021095
0.000812492
0.00104862
1.03864e-05
0.000160881
0.00353002
0.004576
0.00406762
0.00218729
0.00214425
0.00204726
0.00189268
0.00262642
0.0010751
0.00107754
5.848e-05
5.66932e-05
0.00164266
0.00212564
0.0019181
0.00196412
0.00176554
0.00344261
0.00433979
0.00283898
0.00359793
0.00119824
0.000865306
0.000888921
0.00112479
0.000831241
0.00106536
0.00091152
0.000864493
0.000448002
0.000237916
0.00233934
0.00247532
0.00132418
0.00142192
0.00149229
0.00138416
0.00185454
0.00171204
0.00120444
0.00106645
0.000516222
0.000678896
0.000394991
0.000232991
8.00377e-05
-4.59701e-05
-0.000206363
-0.000204717
-0.000214444
-0.000216637
0.000687326
0.000687933
-8.1449e-05
-8.31562e-05
0.000564708
0.000571086
0.000745487
0.000785742
0.00195456
0.00206101
0.00485675
0.00534528
0.00157349
0.00156953
0.000839005
0.00103563
0.000215994
3.92235e-05
0.000385977
0.000342026
0.00111673
0.00107565
0.00173686
0.00186278
0.00200047
0.0020798
0.00177503
0.00180522
0.00139961
0.00140974
5.5274e-05
5.75837e-05
-0.000187979
-0.000202782
0.000949177
0.000990955
0.00171872
0.00161439
0.00208212
0.00220006
0.00163266
0.00283122
0.00253537
0.00337786
0.00293297
0.000883412
0.00120701
0.000394727
0.000683572
0.000522835
0.000256873
0.000569738
0.000633356
-0.000193371
-0.000214816
-0.000117715
2.16291e-05
0.00161925
0.00156615
0.00205992
0.00218759
0.00127866
0.00137602
0.00147892
0.00157831
0.00150766
0.00161989
0.0016395
0.00176832
0.00120811
0.00133093
-4.75467e-05
3.6426e-05
0.000780987
0.000928775
-0.000117872
-1.72599e-05
0.00018464
0.000340685
-0.000188389
-0.000216092
-0.000167531
-0.000208162
0.000113788
8.76455e-05
0.00230644
0.00225094
-0.000200391
-0.000203508
-0.000249594
-0.000249342
0.000542797
0.000670759
-0.000191334
-0.000230845
0.000378189
0.000373017
0.0463833
0.00120595
0.00109372
0.00377208
0.00326874
0.0021823
0.00221189
0.000268448
0.000296679
0.00347201
0.00379269
0.00159581
0.00179551
-5.28537e-05
-0.000155315
0.000188593
2.48237e-05
0.000536896
0.000725441
0.00369683
0.00345724
0.00278057
0.00366905
0.0025739
0.00259916
0.00223364
0.00245913
-1.23992e-05
-2.92561e-05
0.00012319
-0.000143434
-0.000144543
-0.00018252
-0.000202655
0.00157679
0.00132606
0.00203274
0.00160704
0.00330905
0.0029722
0.00391633
0.00160083
0.00152661
0.00245053
0.00216123
0.00410929
0.00311033
0.00261056
0.00297634
0.00131894
0.00159682
0.00198526
0.00156569
-2.59304e-05
0.00022941
0.00101201
0.00126686
0.000951865
0.00119835
0.000942063
0.000985635
0.00106241
0.00111841
-0.000135448
3.00059e-05
-5.81358e-05
0.000135784
-0.000214517
-0.000200065
0.00020255
0.000402622
0.000509796
0.000461168
0.00231617
0.00220458
0.000758532
0.000643166
0.00123629
0.00133304
0.00142451
0.00152289
0.00166158
0.00176943
0.00189077
0.00202106
0.00114869
0.00126948
5.59208e-05
-3.37803e-05
0.000729431
0.000873322
3.87878e-06
-0.00010578
5.0221e-05
8.49658e-05
-0.000202989
-0.000201897
-0.000172904
-0.000210043
0.000142425
0.00145598
0.00144739
-0.000186215
-0.000189404
-0.000248215
-0.000248765
-9.04869e-05
-9.54703e-05
0.000863997
0.000862973
0.00114733
0.00112921
-0.00023157
-0.000231214
0.00240102
0.00290415
-0.000228209
-0.000228668
0.00199366
0.00183665
0.00186773
0.00152494
0.00146135
0.00424425
0.00456591
0.0036332
0.0043301
0.000273501
0.000130106
0.00100077
0.000983169
0.00267175
0.00264964
0.0319509
0.120001
0.00485901
0.00597251
0.0019046
0.00167961
0.000348621
0.000629474
-8.94421e-05
-0.000176482
0.0004273
0.000981747
0.00084922
0.000963818
0.00246462
0.00236139
0.0030731
0.00384391
0.0019323
0.00269521
0.00210113
0.00105512
0.00135264
0.000399024
0.000755866
0.000412792
0.000411884
-0.000192128
-0.000202903
-0.000125264
-0.000133474
-0.000174922
-0.000179073
0.0012781
0.00121929
0.00151906
0.00135959
0.00356237
0.00206148
0.00192937
0.00238194
0.00379694
0.00391513
0.00329823
0.00397305
0.00245909
0.00241342
0.00145833
0.00153234
0.00148495
0.00184858
0.00089099
0.00120511
0.000547593
0.00054674
0.000482713
0.000787369
0.000628947
0.000348325
0.000806253
0.000772265
0.000682561
0.000640305
0.000216842
0.000245426
-0.000197288
-0.000214487
0.000371071
0.000615365
-0.000203264
-0.000215638
1.86823e-06
-0.000126669
0.000282835
0.000116954
0.00203396
0.00209138
0.00420709
0.00350235
0.000880116
0.000761519
0.000973534
0.000868208
0.0011785
0.00107668
0.00132201
0.00121519
0.00137281
0.0014708
0.00159706
0.00170105
0.00180576
0.00192473
0.00102589
0.00090126
0.00109329
0.00121102
-9.32085e-05
-0.000158259
0.00036865
0.000236859
0.000679879
0.000820841
0.00105102
0.000888826
-0.00014351
-6.34851e-05
-0.000144194
-0.000203629
0.000305452
0.000253025
0.000211238
0.000174443
-0.000221852
-0.000222121
6.33842e-05
4.08616e-05
0.0110451
0.0113377
0.00297055
0.00260287
-0.000164545
-0.00016944
0.000170078
0.000265824
-0.000231338
-0.00023248
0.00191215
0.00191648
0.00179336
0.00210385
-0.000154835
-0.000203557
-0.000192198
-0.000193078
0.00304232
0.00308404
0.00865347
0.00880069
-0.000211821
-0.000215028
-9.4163e-05
-1.72529e-05
0.00236886
0.00261256
0.00198168
0.00259405
0.00172485
0.00164152
0.00135922
0.00145206
0.00177805
0.00162974
0.00316019
0.00269018
0.000631535
0.000438698
0.00564407
0.00536397
0.00170803
0.00187584
0.00146669
0.00145949
0.0603223
0.0605695
0.0163282
0.0533673
0.121443
0.124426
0.00152446
0.00171891
0.00129335
0.00131056
0.000245338
0.000192209
0.00010188
0.00011403
-8.39299e-05
-0.000176709
0.000886997
0.000932264
0.00102197
0.000971847
0.00384435
0.00496679
0.00144452
0.00136242
0.0017047
0.00187704
0.00206219
0.00229858
0.00305927
0.00104411
0.00131878
0.00175438
0.00172649
0.000370632
0.000751911
0.000775397
0.000775231
-0.000193855
-0.000202954
-1.32381e-07
-2.0049e-05
-0.000185463
-0.000202722
0.000846896
0.000901791
0.00132514
0.00135703
0.00256892
0.00295357
0.00243485
0.00365317
0.00171804
0.00164571
0.00227381
0.00226219
0.00226488
0.00143301
0.00134204
0.00201114
0.00222479
0.00436602
0.00338725
0.00126657
0.00120216
0.00156868
0.00198292
0.00021859
-3.78198e-05
0.00107213
0.00133831
0.00062399
0.000470233
0.000613656
0.000824076
0.00101838
0.00107793
0.0011375
1.92788e-05
6.50725e-06
0.000274558
0.000303567
0.000101393
-7.74474e-05
0.000856516
0.000788733
-2.86395e-05
-0.000138934
-0.000202067
-0.000214926
0.000611982
0.000560116
0.0016596
0.00171388
0.00200706
0.00194122
0.0029552
0.00335901
0.00215506
0.00231669
0.00115624
0.00104177
0.000837087
0.000719744
0.00101409
0.000907236
0.00103742
0.00113745
0.00137617
0.0012685
0.00153628
0.00163747
0.00173096
0.00184322
0.00108111
0.000953097
7.53274e-05
-2.06957e-05
0.000466291
0.000595768
0.000417529
0.00057879
0.000834193
0.000987806
8.69842e-05
0.00022256
-0.0002199
-0.000188232
0.000130582
6.24936e-05
0.000187216
-6.5254e-05
-4.91804e-05
-0.000222336
-0.000203676
2.96701e-06
2.4529e-05
-4.97149e-05
-3.36123e-05
0.000868907
0.000901166
0.0331582
0.0299389
0.0316057
0.0316272
0.000468009
0.000352966
-0.000243798
-0.000244915
-0.000240844
-0.00024145
-2.72495e-05
-3.33341e-05
0.0010499
0.00104668
0.00192993
0.0022145
-7.94084e-05
-0.000137204
0.00142249
0.00141006
0.000815443
0.000802767
0.000318177
0.000313872
-0.000232612
-0.000232016
0.00246042
0.00244743
0.00360445
0.00353801
0.00318246
0.00323793
0.0521215
0.053135
0.0031469
0.00321083
-0.00021421
-0.000210605
0.0543079
0.052171
0.0451553
0.00177006
0.00199191
0.00146264
0.00134454
0.00158745
-6.8167e-05
-7.03832e-05
0.00188137
0.00198639
0.00179102
0.00169595
0.00117987
0.00110182
0.00139281
0.00130543
0.00233882
0.00244095
0.00232384
0.00230495
-0.000298186
-0.000299757
0.00166909
0.00169899
0.000653631
0.00045383
0.000298965
0.000147764
0.00296797
0.00315705
0.000237019
0.000244897
0.00104003
0.00101971
0.0012631
0.00125473
0.00145335
0.00144814
0.00379102
0.00375493
-0.0122788
0.00853076
-0.00312186
0.0085827
0.00842855
0.00144932
0.00152459
0.00164645
0.00184128
-5.33665e-05
-7.88048e-05
-0.000137553
0.000642843
0.000353058
0.000117039
0.000549654
0.000300317
-0.000175496
-0.000103886
0.000976197
0.00078132
0.00115291
0.00120445
0.00231959
0.00283604
0.00126946
0.00120866
0.00207134
0.00185213
0.00225199
0.00280527
0.00132583
0.00104107
0.00190048
0.00257888
-0.000160626
-0.000169793
0.000409993
0.000403684
-0.000190193
-0.000202841
-3.76089e-05
-5.3204e-05
0.00140147
0.00117101
0.0011571
0.00108849
0.00102691
0.00106333
0.00258149
0.00221642
0.00259438
0.00391337
0.00476778
0.00397547
0.00160995
0.00153908
0.00185481
0.00177811
0.00286971
0.00341069
0.00172796
0.00179673
0.0026597
0.00228319
0.002535
0.00253421
0.000875504
0.0011626
0.00156385
0.00200361
0.000736818
0.00043978
-0.000162407
-5.65824e-05
0.000591369
0.000730736
0.000782513
-0.000136479
-0.000139332
-0.000216688
-0.00018087
0.000555839
0.000322778
-0.000203939
-0.0002166
0.000359569
0.000170436
0.00198378
0.00193032
0.00215828
0.00223853
0.00309002
0.00271482
0.00211137
0.00199915
0.00237253
0.000925773
0.000805682
0.000608692
0.000722951
0.00122293
0.00111926
0.00132498
0.00143291
0.00169056
0.00157192
-8.47223e-05
-0.0001543
0.000398096
0.000522174
0.000209691
0.000335384
0.000299191
0.000444023
0.000628519
0.000465054
6.32128e-05
0.00019162
-0.000150501
-0.000203323
-0.000169845
-0.000217588
-0.000204046
-0.000142506
0.000198894
0.000337711
-3.73688e-05
-0.000222457
-0.000203982
-9.2054e-05
-7.94768e-05
-0.000124017
-0.000114068
0.00229016
0.00231459
0.0334471
0.030185
0.00159794
0.00253205
0.00229292
0.00236293
0.000645991
0.000637612
-0.000242961
-0.000243058
-0.000221376
-0.000223152
7.47672e-05
8.15311e-05
-0.000233599
-0.000249797
0.00259006
0.0020272
0.00195947
0.0022448
-9.03181e-05
-0.000145612
0.00132075
0.0013383
0.00207687
0.00236987
0.000857884
0.000873543
0.00094783
0.00093428
0.000536662
0.000527385
0.000218248
0.000223266
9.43634e-05
9.34469e-05
-0.000194056
-0.000195166
0.000907331
0.00111328
0.00296135
0.00244257
0.0034149
0.00334996
0.0447668
0.0457068
0.00234151
0.00230521
0.00218109
0.00219815
-0.000187889
-0.000189138
-0.000174292
-0.000144842
0.00043789
0.000635947
0.00100039
0.00102284
0.000871324
0.00208205
0.00225851
0.00213449
0.00240972
0.00257659
0.00245435
-0.000156331
-0.000157473
0.00100665
0.000957054
0.0018398
0.00174799
0.00161519
0.00154422
0.0014233
0.00152558
0.00320736
0.0031629
0.00254591
0.0030318
0.000162107
0.000189022
-0.000271887
-0.000301301
0.00488544
0.00506992
0.000257582
0.000120597
0.000458748
0.000660786
0.000270305
0.000128004
0.00325766
0.00288537
0.00199625
0.00245209
7.54363e-05
9.60313e-05
0.000888882
0.00076568
0.000923604
0.000835745
0.000233113
0.000252185
0.00106507
0.00108202
0.00157866
0.00158485
0.00221404
0.0022126
0.0609484
0.0593695
0.00263937
0.00260735
-0.000488135
0.00387294
0.00126607
0.00123226
-0.000152679
-0.000132788
0.000327306
0.000590659
6.95825e-05
8.58647e-05
-9.89996e-05
-0.000175477
0.00126825
0.00132577
0.00079607
0.000596601
0.0030114
0.00252595
0.00289084
0.00249892
0.00207831
0.00146162
0.00138686
0.00172585
0.00162152
0.00322085
0.00249811
0.00209439
0.00243856
0.00188059
0.00263424
0.00171351
-0.000146158
-0.000147301
0.000433451
0.000771307
0.000668788
0.00060912
-7.94017e-05
-0.000147032
-0.000115988
-0.000105213
0.00140095
0.00167319
0.00186152
0.00162317
0.0017247
0.00202672
0.00212279
0.00228388
0.00201171
0.00234091
0.00224759
0.0024174
0.0014629
0.00133922
0.00139513
0.00149889
0.00142431
0.00172981
0.00165353
0.00244612
0.00279118
0.00206186
0.00233271
0.0029216
0.000249399
-1.31679e-06
0.00119018
0.000888546
-0.000167876
-0.000219084
-2.18584e-05
-0.000148772
9.66985e-05
0.000296492
0.00132006
0.00138607
0.000835971
0.000893357
4.43718e-05
-0.000106923
-0.000188109
-0.000215571
-0.000133508
-1.45814e-05
0.00179105
0.00174293
0.00205983
0.00197417
0.00211746
0.00204524
0.00396961
0.00523255
0.00196038
0.00187793
0.00242064
0.00264718
0.00099379
0.00110521
0.000796577
0.000680245
0.00155426
0.00144515
-0.00016536
-0.000112889
0.000137073
0.000248967
0.000404784
0.000266556
0.000632365
0.000771091
-5.04576e-05
-0.000136504
4.24838e-05
0.000163948
-0.000202306
-0.000145125
-0.000218509
-0.000176856
-0.000144577
-0.000202998
0.00022277
0.000375901
-0.000214053
-0.000183351
-0.000222413
-0.000203633
-1.60965e-05
-0.00010345
0.00225262
0.00229888
0.00143333
0.0025868
0.00247633
0.00241967
0.00208366
0.00209183
0.00123121
0.00109067
0.000331364
0.000236803
-0.000243009
-0.000242552
-0.000245912
-0.000246791
-0.000241978
-0.000247559
4.74133e-05
4.02997e-05
-0.000171252
-0.000174131
0.00146611
0.00146138
0.00202026
0.00259914
0.000827427
0.00084056
-0.000225484
-0.00024759
-0.000221813
-0.000246167
-1.04114e-05
0.00243397
0.0024231
0.002408
0.0023887
0.00179612
0.000708468
0.000720598
0.00109873
0.00108441
0.000790575
0.000651826
-0.000207406
-0.000239163
-0.000237403
-0.000235856
0.000620113
0.000610461
0.00020112
0.000198827
-0.000142189
-0.000143752
0.00249884
0.00248972
0.000989931
0.000816995
-0.000121594
-0.0001127
0.00305626
0.00300055
0.00328683
0.00313102
0.0432153
0.0437383
0.0295289
0.030019
0.00365754
0.00371293
0.00188591
0.00189819
0.00036548
0.000537175
-0.000113897
-3.5746e-05
-0.000136293
-0.000166352
-1.24771e-05
-8.97455e-05
0.000249938
0.000427942
0.034675
0.0565724
0.00131877
0.00115631
0.00215877
0.00192506
0.00171963
0.00168716
0.00242967
0.00243649
0.0020973
0.0018108
0.00221872
4.42616e-05
-4.09683e-05
0.00053199
0.000496769
0.00200651
0.00207872
0.00189651
0.00159867
0.00168362
0.00164574
0.00175397
0.00322398
0.00242077
0.00220995
0.00245572
0.00265499
0.00352065
0.00344876
0.00141761
0.00126758
-0.000269334
-0.000266455
0.000115479
0.000276561
0.000732092
0.000754123
-0.000248163
-0.000235596
0.00221707
0.00226002
0.000464235
0.000668535
0.00322452
0.00281087
0.00248902
0.00202718
-8.13427e-05
-7.22058e-05
0.00012378
0.000145091
0.000768604
0.00089145
0.0412259
0.041017
0.0307522
0.0436686
0.00207368
0.00229849
0.00110043
0.00112045
0.00134586
0.00134002
0.00223551
0.00224407
0.00206106
0.00205412
0.0609245
0.0610225
0.00177934
0.002086
0.00107256
0.00102232
0.00145292
0.00166125
0.000539203
0.000495131
0.000104898
7.40388e-05
0.000271984
0.000508667
-9.42302e-05
-0.000175838
0.00138532
0.00117213
0.000841776
0.000644458
0.00193911
0.00180461
0.00194888
0.00155646
0.00169728
0.00160431
0.00133095
0.00159611
0.00150401
0.00194346
0.00187181
0.00170364
0.00169179
5.068e-05
4.76348e-05
-0.000100317
-0.000157789
-0.000140631
-6.70518e-05
-3.99805e-05
-5.55048e-05
0.000691714
0.000774068
0.00154738
0.0014721
0.0019166
0.00202455
0.00180307
0.00178425
0.00168878
0.00180806
0.00185353
0.00203902
0.00182242
0.00191494
0.0026829
0.00338556
0.00384658
0.00322028
0.00368337
0.001389
0.00121116
0.0012875
0.00168957
0.00157357
0.00198483
0.00189895
0.00205406
0.00248601
0.00225038
0.00315666
0.00245994
0.00214654
0.00242949
0.000239098
-1.39067e-05
-0.00018861
-0.000200277
-0.000208068
-0.000219218
-0.000150978
-0.000130446
4.60452e-05
-7.06602e-06
-0.000143439
0.000366136
0.000135224
0.00118348
0.00125325
0.000519746
0.000474533
-9.34433e-05
7.11216e-05
0.00170022
0.00165292
0.00188315
0.00198393
0.00190401
0.0018441
0.00255515
0.00231954
0.00351431
0.00333635
0.00408307
0.00530291
0.00268321
0.00315221
0.00294336
0.00225707
0.000949012
0.00105786
-0.000107864
-0.000164143
0.000275392
0.0001599
0.00043091
0.000557715
0.000485934
0.000334749
0.000587242
0.000723849
-3.5223e-05
-0.000128058
-0.000220436
-0.000192511
-0.000219279
-0.000182973
0.000250284
0.000416256
-0.000212027
-0.000178162
-0.00024202
-0.000237911
0.00198739
0.0026718
0.00217247
0.00214282
0.0191692
0.020441
0.0248376
0.0234563
0.00655552
0.00548584
0.000775852
0.000912902
0.000534557
0.000542333
0.000455218
0.000550389
0.000182581
0.000173969
-0.000229884
-0.000231349
-0.000151218
-0.000155437
-0.000242412
-0.000242745
-0.00022491
0.000132625
0.000125012
5.43336e-05
-0.000249209
-0.000249554
-0.000250023
-0.000249943
0.0334092
0.0337052
0.00068673
0.000686927
0.000824637
0.000675212
0.0278552
0.0299486
0.00136374
0.0012118
0.000801421
0.00078857
0.000368296
0.000489104
-0.000223082
-0.000246686
-0.00021752
-0.000244192
0.00164672
0.00167102
0.00207863
0.00177149
0.0013957
0.00123713
0.000976771
0.000993678
0.000662666
0.000673723
-0.000215668
-0.000243276
-0.000200623
-0.00015038
0.000462582
0.0004703
9.67145e-05
0.000204513
-0.0002345
-0.000233453
-0.000137837
-0.000139259
0.00119658
0.00120322
0.00178427
0.0017608
0.000849177
0.00103009
0.00117069
0.000486214
0.000493837
0.00105045
0.00103375
0.00325911
0.00320662
0.00928267
0.0103598
0.0400307
0.0392069
0.0414722
0.0407832
0.0509976
0.0504234
0.00858172
0.0292872
0.00376067
0.00371217
0.00390014
0.00398182
-0.000219556
-0.000220177
0.000179957
0.000306285
-0.000156132
-0.000184984
0.000549833
0.000554181
-8.70159e-07
-7.93765e-05
-0.000140721
-0.00017044
-0.000122289
-8.28797e-05
0.00158554
0.00125363
0.0552818
0.0534048
0.00224242
0.00248588
0.00188016
0.00178852
0.00168923
0.00189993
0.00175276
0.0021855
0.00201872
0.00230693
0.00267647
0.00160063
0.00111648
0.00107031
0.00040812
0.000579443
0.000552472
0.00028196
0.000909611
0.000704526
0.00180592
0.0019017
0.00116678
0.00106789
0.0015665
0.00147868
0.00180409
0.00174959
0.00160557
0.00216346
0.0019867
0.00213804
0.00303249
0.00206512
0.00187609
0.00206887
0.022524
0.0262634
0.000274523
0.000303226
0.00113358
0.0011209
-0.000315455
-0.000350709
0.00224498
0.00221438
0.00103184
0.00105904
-0.000232329
-0.000234022
0.00752371
0.0211743
0.00228783
0.00221977
0.000267039
0.000126001
0.000288002
0.000139965
0.00224187
0.00259035
0.00264929
0.00272625
0.00212839
0.00260604
-1.35646e-05
-5.4172e-06
-7.53737e-06
9.16768e-06
0.000168281
0.000192688
0.000509096
0.00049865
0.000120387
0.000120784
0.0367471
0.0391462
0.0419749
0.00228225
0.00206248
0.000274201
0.000258716
0.00130827
0.00129496
0.00124727
0.00124061
0.00186104
0.00186118
0.0585833
0.0591018
0.00184755
0.00182532
0.00251292
0.00249307
0.001642
0.00327711
0.00580337
0.00792046
0.000885165
0.000829004
0.00137324
0.00159792
0.000293518
0.0005734
2.52369e-05
-7.84764e-06
0.000243685
0.00046782
-7.64749e-05
-0.000174679
0.00112294
0.00107287
0.00425957
0.00552908
0.00221703
0.00152662
0.00133617
0.001046
-0.000152708
-9.04662e-05
-8.15479e-05
0.00101506
0.00093417
0.00191924
0.00177249
0.00269018
0.00323652
0.0033909
0.00162425
0.00147845
0.00162917
0.002139
0.00312946
0.00338151
0.00437317
0.00468248
0.00554249
0.00145217
0.0012664
0.00177725
0.00188116
0.00195136
0.00181999
0.0021624
0.00188847
0.00181906
0.00291794
0.00201639
0.000822303
0.000558289
0.000719844
0.00142245
0.00173457
-0.000215115
-0.000180298
-9.29935e-05
0.000148336
-0.000218033
-0.000142155
1.69406e-05
-0.000145802
0.000433856
0.00018969
-3.7753e-05
-0.000155029
0.0010209
0.000964525
0.00173808
0.00167655
0.0015166
0.00147038
0.00160901
0.00169865
0.00178921
0.00208545
0.00218196
0.00247253
0.00267018
0.00744506
0.00628652
0.002904
0.00191098
0.00203514
0.00252373
0.000138704
2.40281e-05
-0.000100785
-0.000161541
0.000368184
0.000489525
0.000531022
0.000374191
-0.000220861
-0.000195822
7.2252e-05
-4.99048e-05
0.00181587
0.00182821
-0.000230409
-0.000215133
0.000631302
0.000615826
-0.000181765
-0.000180577
0.00162276
0.00163739
0.0314027
0.0227877
0.0148791
0.0163976
0.00202231
0.00179529
0.0221761
0.00231292
0.00229639
0.000885952
0.000750807
0.00103762
0.0010522
0.00160355
0.0015859
0.000755303
0.000747515
0.000245441
0.000342133
-0.000145943
-0.000101659
-0.000242826
-0.0002425
-0.000232626
-0.000197316
-0.000159866
-0.000226633
-0.000228304
0.000224446
0.000216292
-8.56237e-05
-2.13171e-05
-0.000112656
-0.000116456
-0.000234686
-0.000235737
0.00144945
0.00148329
0.000862467
0.00086254
0.00132769
0.00133519
0.000981802
0.00200179
0.00263163
0.00169483
0.00171695
0.000575561
0.000706172
0.000954463
0.00109701
-0.000226683
-0.000248001
0.000141416
5.36039e-05
-0.000186255
-0.000188273
-0.000219077
-0.000244946
-0.00017961
0.00245899
0.00245364
0.00214017
0.00218047
0.00125164
0.00126589
0.00120001
0.00117283
0.000962059
0.00111355
9.25145e-05
8.64897e-05
-0.000210709
-0.000240787
-0.000163413
0.000341106
0.000347566
0.000448058
0.000441418
0.000323175
-0.000196586
-0.000198292
1.63928e-05
1.349e-05
-0.000140698
0.00220465
0.00257179
0.0020697
0.0020415
0.00137926
0.00156943
0.00121717
0.00119179
0.00294495
0.00297489
0.0251688
0.0426634
0.00340845
0.00407438
0.00406541
0.00388728
0.00390037
0.00299404
0.00300966
0.00322261
0.00315683
0.0384782
0.015358
0.0489534
0.0486237
0.0289982
0.028743
0.0516142
0.0443002
0.0035467
0.00356261
0.00408665
0.00402954
0.00152667
0.00154659
0.000125796
0.000128569
0.000533995
0.00053589
-1.82295e-05
7.14335e-05
-0.000139973
-8.68382e-05
-1.40349e-05
-9.81295e-06
-3.56698e-05
-0.000113612
7.44148e-05
0.000206666
0.00321826
0.00317502
-0.000131483
-0.000162001
0.000427028
0.000625598
-1.33114e-05
8.96541e-05
8.34517e-05
0.000133863
0.0478975
0.0206988
0.0345573
0.000919317
0.000898758
-1.39923e-06
-1.41588e-05
0.00145614
0.00134478
0.00138483
0.00162333
0.00263479
0.00313875
0.00163411
0.0026621
0.00251958
0.00248803
-0.000139899
-0.000142646
-2.41253e-05
6.88718e-05
0.000234491
0.000212538
-6.71271e-05
-0.000143737
0.000252329
0.000206632
0.00103797
0.000811709
0.00210137
0.00262205
0.00138389
0.00130746
0.00113171
0.00104156
0.00191518
0.00178332
0.00167297
0.00152225
0.00163637
0.0014729
0.00167885
0.00174236
0.00216352
0.00189372
0.00225327
-7.02196e-05
1.44204e-06
-0.000172631
0.00252537
0.00169838
0.00161596
-0.000294939
-0.000296586
0.00073461
0.000587666
0.000302372
0.000479372
0.00215703
0.00224244
5.53672e-05
5.22611e-05
0.00183041
0.00180536
0.00138017
0.00141377
0.000407885
0.00041735
-0.000246539
-0.000244808
0.000784609
0.00058423
0.00231544
0.00222342
0.00164291
0.00199419
0.000263642
0.000123938
0.000919123
0.00116753
0.000295088
0.000145009
0.000393435
0.000224096
0.00257752
0.00261564
0.0399167
0.0398452
0.00287074
0.00325313
0.00294462
0.00324448
0.0036394
0.00385745
-6.08863e-05
-4.37553e-05
-3.7597e-05
-2.34191e-05
0.000241866
0.00021723
0.000404272
0.000414929
0.000198
0.000197436
0.00112843
0.00103695
0.00143299
0.00157116
0.00186959
0.00170571
-0.000121762
-0.000123401
0.00146521
0.0015031
0.00115497
0.00114782
0.00135267
0.00136039
0.00203928
0.00204235
0.059591
0.0599358
0.00211914
0.00214019
0.00190692
0.00189645
0.00256998
0.00253929
0.00410977
0.0049361
0.00103122
0.00100107
0.00102533
0.000843258
0.000958707
0.00129668
0.00122948
0.00032823
0.00060083
5.40337e-05
0.00334264
0.00105582
0.00110955
-0.000158367
-0.000196227
-0.000171433
0.00124804
0.00148711
0.00109602
0.00116099
0.00187268
0.00230012
0.0032154
0.001897
0.00275573
0.00542414
0.00705271
0.00232685
0.00266227
0.00452089
0.00117179
0.00111892
0.00207442
0.00223047
0.00198111
0.0018578
0.00217093
0.00226816
0.00298363
0.0025145
0.00251476
0.000824917
0.000555141
0.00136851
0.00165863
-0.000217502
-0.00017479
0.000127631
-9.29462e-05
-3.59931e-05
-0.000171525
-0.000219701
-0.000159959
0.000162378
0.000393868
0.00175143
0.00180742
0.00142711
0.00151882
0.00183437
0.00188447
0.00216961
0.00230844
0.00458616
0.00359109
0.00180484
7.51862e-06
0.000115782
-7.48193e-05
-0.000149385
0.000304344
0.000184284
-0.000202131
-0.00014222
0.00169009
0.00170543
-0.000136135
-8.46437e-05
-0.000229963
-0.000236497
0.000407496
0.000536604
0.00231268
0.00250821
0.000310819
0.000305634
0.00278653
0.00276972
0.00071514
0.000718883
0.00200316
0.00201403
0.00118039
0.0026915
0.0187235
0.0176819
0.0314775
0.0178188
0.0209634
0.019822
0.00212489
0.00222617
0.000872708
0.000738485
0.000899326
0.000763258
0.00170338
0.00168163
0.00098461
0.000975691
0.000868144
0.000860088
0.000440397
0.000429692
-8.71678e-06
5.47854e-06
0.000153149
7.3874e-05
-0.000212063
-0.00018277
-0.000239624
-0.000241167
-0.000194297
-0.000191347
0.000140134
0.00023262
-0.000185564
-0.000188437
-0.000165476
-0.000162595
-0.000208182
-0.000210156
0.0213616
0.0219554
0.00342989
0.00345115
0.00104547
0.00104579
0.00082798
0.000676155
0.000822312
0.000676256
0.00261989
0.00200751
0.00126403
0.0012608
0.00176306
0.0020176
0.000694304
0.000564621
0.00106695
0.000926612
0.000108485
2.52427e-05
0.000376591
0.000498759
6.45308e-05
0.000154103
-0.000140038
-8.30557e-05
-0.000190248
-0.000224288
-0.000130999
-7.16011e-05
-0.000220503
-0.000245596
0.00107131
0.00105273
0.00228844
0.00232047
0.00182971
0.00186538
0.00230087
0.0020168
0.000684945
0.000696587
0.00101276
0.00103322
0.00057337
0.000564404
0.00018521
0.000178887
-0.000213376
-0.000242119
0.000107261
0.000111098
0.00059166
0.000582459
7.89223e-06
5.42508e-06
-0.000145524
-0.000147553
1.06284e-05
-7.5162e-05
0.00146416
0.00147337
0.00214382
0.00214717
0.00180807
0.00209618
0.00143749
0.00161627
0.00100856
0.000832295
0.000317011
0.000323033
0.000444159
0.00045418
5.95091e-05
0.000157863
0.00167604
0.00164671
0.00302608
0.00248812
0.00382268
0.00386047
0.0466374
0.0460722
0.00308679
0.00299828
0.0150596
0.014793
0.0157072
0.0161144
0.00373602
0.00383756
0.00849669
0.00842223
0.00361518
0.00356408
0.00303699
0.00299781
0.00201191
0.00205256
0.00117094
0.00119636
0.000644353
0.000808784
0.000237743
0.000234181
0.000365492
0.000364756
0.00017995
0.000306999
-0.000212914
-0.000208651
-9.35619e-05
-8.884e-05
-3.43947e-05
-0.000111854
0.000199566
0.000198875
8.20462e-05
7.79451e-05
0.000368517
0.000559079
-8.48368e-05
-7.08886e-06
0.000154995
0.000284794
9.42362e-05
-7.10893e-06
0.000292538
0.000286113
0.00302287
0.00753862
0.00424071
0.00361613
0.0210455
0.000880083
0.000972016
0.00407818
0.00462152
0.000705931
0.000653706
0.00287316
0.0033159
0.00106858
0.0011958
0.00157137
0.00149274
0.00154584
0.00163504
0.00163542
0.00147742
0.0021633
0.0019402
0.00250958
0.00259451
0.00171171
0.00166794
0.000276167
0.00017406
0.000892081
0.000766336
0.000210136
0.000179139
-0.000132294
-0.000130314
-0.000144304
-0.00011357
0.000571599
0.000307047
5.12904e-05
1.39395e-05
0.00141506
0.00178809
0.000797368
0.001073
0.00212477
0.00260478
0.00121086
0.00124696
0.00117781
0.00101639
0.00165108
0.00155116
0.00150421
0.00137343
0.00132943
0.00138589
0.00147955
0.00158435
0.00255386
0.00256867
0.003026
0.00323894
0.00373906
0.00232722
0.00281735
-0.00020972
-0.000278323
0.00241664
0.00247065
0.00155135
0.00159927
0.000132842
0.000247379
-0.000217599
-0.000212632
-0.000278409
-0.000305874
0.0132655
0.0151707
0.000186754
0.000297607
0.00213772
0.00211827
-0.00024804
-0.000249466
0.000126892
0.000121157
0.00284367
0.00292525
0.00267742
0.00265539
0.000720819
0.00101786
0.000426992
0.000436804
-7.52801e-05
-7.8622e-05
0.00199915
0.00319476
0.00161861
0.00193542
0.000816945
0.00060828
0.00278565
0.00268669
0.00165297
0.00164664
0.000443529
0.0006388
0.000260687
0.000122263
0.00177192
0.00216501
0.00115452
0.000909097
0.000291649
0.000142499
0.000323367
0.000166447
0.00310914
0.0026687
0.00584663
0.00614001
0.000476315
0.000280877
0.00283494
0.00320986
0.00290655
0.00327615
0.00306531
0.000630201
0.000642673
-6.57036e-05
-4.90487e-05
5.58379e-05
3.80679e-05
0.000649302
0.000538735
0.000306817
0.000313869
-6.57309e-05
-6.49721e-05
0.000789954
0.000794319
0.000955261
0.000866139
0.00094041
0.000850909
0.00119737
0.00131045
0.00189408
0.00171693
0.0228563
0.0489855
0.00250802
0.00352362
-0.000157468
-0.000158059
0.0015615
0.00159775
0.000937826
0.00092498
0.00149593
0.00150866
0.00128309
0.00127249
0.00170867
0.00170619
0.00361021
0.00359894
0.00365015
0.00362593
0.00526056
0.00574736
0.00194807
0.00196606
0.00207869
0.00206919