/*--------------------------------*- C++ -*----------------------------------*\
  =========                 |
  \\      /  F ield         | OpenFOAM: The Open Source CFD Toolbox
   \\    /   O peration     | Website:  https://openfoam.org
    \\  /    A nd           | Version:  7
     \\/     M anipulation  |
\*---------------------------------------------------------------------------*/
FoamFile
{
    version     2.0;
    format      ascii;
    class       volScalarField;
    location    "2220";
    object      T;
}
// * * * * * * * * * * * * * * * * * * * * * * * * * * * * * * * * * * * * * //

dimensions      [0 0 0 1 0 0 0];

internalField   nonuniform List<scalar> 
238806
(
4.11293e-08
4.22391e-08
6.94478e-08
7.22205e-08
6.70283e-08
4.88068e-08
4.84762e-08
4.11472e-08
4.01565e-08
7.34878e-08
7.53165e-08
6.27211e-08
1.08336e-07
1.10732e-07
1.27596e-07
1.18003e-07
7.70074e-08
7.9548e-08
3.5061e-08
3.49435e-08
9.73703e-08
1.02519e-07
1.18571e-07
1.20896e-07
1.27013e-07
7.31473e-08
7.64113e-08
7.74308e-08
8.44288e-08
8.31329e-08
3.52115e-08
3.48941e-08
9.82687e-08
9.15431e-08
7.7381e-08
7.29252e-08
0.000135279
0.000136191
7.03943e-08
6.79831e-08
7.14664e-08
7.77344e-08
4.03888e-08
4.0112e-08
3.52891e-08
3.54353e-08
1.31588e-07
1.2176e-07
8.52131e-08
7.92975e-08
5.57682e-08
5.43356e-08
1.02184e-07
1.04575e-07
1.59561e-05
1.56863e-05
7.14899e-08
6.86474e-08
6.85977e-08
6.35163e-08
6.57321e-08
6.74139e-08
6.57328e-08
6.66634e-08
6.37461e-08
3.55599e-08
3.56711e-08
3.92724e-08
4.01015e-08
4.60799e-08
4.76101e-08
9.87096e-08
1.05853e-07
8.26127e-08
8.85203e-08
6.33465e-08
6.58099e-08
7.7897e-08
7.34439e-08
2.55464e-06
2.5392e-06
6.50948e-08
6.10402e-08
4.48839e-08
4.43221e-08
5.68355e-08
5.90846e-08
8.71876e-08
8.40723e-08
8.10362e-08
8.37938e-08
6.05828e-08
6.30636e-08
4.15256e-08
4.18874e-08
6.45595e-08
6.18652e-08
6.63535e-08
7.0855e-08
7.61332e-08
3.58544e-08
3.88291e-08
3.93973e-08
4.02344e-08
3.99137e-08
1.52569e-07
1.60363e-07
9.00148e-08
9.60662e-08
9.49692e-08
1.01935e-07
6.60254e-08
6.30141e-08
5.69872e-08
5.84443e-08
1.06514e-07
1.00373e-07
0.000159285
0.000158899
0.000159978
9.72182e-08
1.03903e-07
4.6309e-08
4.70229e-08
4.76255e-08
4.73232e-08
1.36529e-07
1.37832e-07
9.3488e-08
9.18142e-08
6.55506e-08
8.44239e-08
8.74216e-08
8.44233e-08
6.0888e-08
5.81314e-08
4.1651e-08
4.12205e-08
1.0831e-07
1.136e-07
1.11008e-07
1.07896e-07
6.20971e-08
3.75758e-08
3.81646e-08
3.74366e-08
3.78938e-08
4.02965e-08
3.96656e-08
4.36503e-08
4.472e-08
5.02432e-08
5.15719e-08
1.4893e-07
1.57714e-07
1.03251e-07
1.09557e-07
1.02734e-07
1.10016e-07
1.02573e-07
1.07805e-07
6.65906e-08
6.91056e-08
5.36999e-08
5.46911e-08
7.80526e-08
7.35542e-08
1.91192e-06
1.92368e-06
0.000134167
0.000135071
6.80639e-08
6.41021e-08
3.44911e-07
3.49749e-07
3.49191e-07
4.52629e-08
4.59015e-08
6.09016e-08
6.23466e-08
1.49088e-07
1.49191e-07
9.13438e-08
8.32438e-08
7.97663e-08
8.06714e-08
4.4684e-08
4.50042e-08
4.11055e-08
4.07441e-08
4.04784e-08
4.01914e-08
4.52702e-08
4.60257e-08
6.85963e-08
6.5067e-08
6.42938e-08
9.16876e-08
9.09673e-08
6.8282e-08
6.98831e-08
3.54963e-08
3.5251e-08
3.7816e-08
3.85001e-08
3.84898e-08
3.92045e-08
5.22479e-08
5.46692e-08
4.61706e-08
4.50379e-08
2.3842e-07
2.34682e-07
1.73182e-07
1.82816e-07
1.3588e-07
1.27187e-07
1.1308e-07
1.05413e-07
9.21463e-08
8.61805e-08
6.57095e-08
6.89913e-08
6.02294e-08
5.77575e-08
5.72433e-08
5.62806e-08
7.74265e-08
7.29532e-08
8.86631e-07
8.40716e-07
7.10396e-06
6.73224e-06
6.14993e-06
5.83033e-06
3.85879e-05
4.0661e-05
3.91056e-08
3.75343e-08
4.6545e-08
4.36044e-08
1.18409e-07
1.25312e-07
4.75176e-07
4.93036e-07
4.74669e-08
4.82108e-08
5.75386e-08
5.62796e-08
6.17325e-08
6.4333e-08
7.87019e-08
8.21543e-08
1.15535e-07
1.13598e-07
7.41115e-08
7.07762e-08
4.17433e-08
4.13163e-08
4.14137e-08
4.1018e-08
4.11759e-08
4.08031e-08
7.44531e-08
7.41082e-08
4.65459e-08
4.56022e-08
6.84233e-08
7.00198e-08
1.02075e-07
1.09194e-07
5.98794e-08
9.40207e-08
5.3235e-08
5.5108e-08
5.15881e-08
3.56573e-08
3.59483e-08
3.63402e-08
3.67127e-08
3.86007e-08
3.80905e-08
4.31478e-08
4.17774e-08
4.2054e-08
4.20161e-08
4.5136e-08
4.57111e-08
1.80995e-07
1.86719e-07
1.50509e-07
1.4559e-07
1.79732e-07
1.89311e-07
1.55531e-07
1.65326e-07
1.1791e-07
1.26422e-07
1.09431e-07
1.17534e-07
1.07035e-07
1.14423e-07
1.10148e-07
1.13652e-07
7.62135e-08
8.08611e-08
6.30753e-08
6.45829e-08
6.04062e-08
6.28459e-08
1.05256e-07
1.04571e-07
8.2845e-08
8.22076e-08
8.35239e-08
8.82836e-08
1.73909e-06
1.65309e-06
1.15279e-06
1.0935e-06
2.14209e-06
2.25597e-06
2.67578e-06
2.69173e-06
7.80855e-06
7.73434e-06
4.08181e-05
3.87245e-05
0.000160861
7.11363e-08
6.7385e-08
1.04478e-07
9.81542e-08
1.19803e-05
1.26692e-05
1.80858e-07
1.72319e-07
3.55249e-07
3.63776e-07
4.91347e-08
5.05534e-08
4.66233e-08
4.63338e-08
5.9853e-08
5.84956e-08
6.69687e-08
7.04681e-08
9.81043e-08
9.74014e-08
9.99825e-08
1.02621e-07
4.98635e-08
4.78935e-08
4.19771e-08
4.15681e-08
4.2588e-08
4.30301e-08
4.30211e-08
4.07003e-08
4.10574e-08
6.7836e-08
6.74888e-08
5.34578e-08
5.14932e-08
4.73922e-08
4.63603e-08
7.74628e-08
8.20255e-08
1.20304e-07
5.08913e-08
5.3395e-08
7.79555e-08
7.2709e-08
6.51563e-08
6.21195e-08
6.24303e-08
6.49145e-08
4.10988e-08
4.22079e-08
3.60548e-08
3.57776e-08
3.64247e-08
3.66021e-08
3.66589e-08
3.71947e-08
3.7205e-08
3.78174e-08
6.65692e-08
6.34157e-08
5.74996e-08
5.49693e-08
4.09973e-08
4.14012e-08
4.01391e-08
4.06065e-08
4.4859e-08
4.48517e-08
4.65908e-08
4.77932e-08
5.33043e-08
5.55265e-08
2.24693e-07
2.28687e-07
1.38466e-07
1.31843e-07
1.86644e-07
1.96169e-07
1.61112e-07
1.7086e-07
1.40269e-07
1.50059e-07
1.26377e-07
1.35896e-07
1.11619e-07
1.19096e-07
1.07353e-07
1.04176e-07
7.98435e-08
8.46079e-08
6.13716e-08
5.98912e-08
7.24222e-08
6.84528e-08
8.77811e-08
8.26777e-08
8.79465e-08
8.73053e-08
7.90935e-08
1.36571e-06
1.30151e-06
8.90203e-07
8.44331e-07
1.26878e-06
1.33725e-06
1.51758e-06
1.43804e-06
6.72078e-06
7.09461e-06
5.4532e-06
5.20883e-06
6.98761e-06
7.3508e-06
8.69655e-05
8.64175e-05
1.0373e-05
9.86156e-06
5.53586e-08
5.34424e-08
5.60902e-08
1.09796e-07
1.12611e-07
1.09764e-07
1.13403e-07
1.11552e-07
1.09216e-07
1.51043e-05
1.48493e-05
3.0378e-07
3.15873e-07
3.3719e-07
3.4467e-07
3.54937e-07
3.55302e-07
1.85326e-07
1.84038e-07
4.72213e-08
4.63882e-08
4.8762e-08
4.97558e-08
5.34993e-08
5.31159e-08
5.92768e-08
7.50235e-08
7.44855e-08
7.844e-08
1.04327e-07
1.11394e-07
1.10849e-07
1.08885e-07
4.3003e-08
4.32471e-08
4.2632e-08
4.19922e-08
4.23831e-08
4.18387e-08
4.21546e-08
4.0631e-08
4.03274e-08
8.21783e-08
8.18276e-08
6.86622e-08
7.1851e-08
6.22299e-08
6.4915e-08
4.64704e-08
4.75262e-08
7.17091e-08
6.76575e-08
8.72844e-08
8.4031e-08
8.67012e-08
1.17032e-07
9.80932e-08
9.74612e-08
1.00163e-07
1.02886e-07
8.74116e-08
6.51662e-08
4.50332e-08
4.35668e-08
3.83676e-08
3.91488e-08
3.61201e-08
3.64714e-08
3.687e-08
3.63267e-08
3.54642e-08
3.57683e-08
3.72713e-08
3.68572e-08
6.03214e-08
6.32298e-08
5.00162e-08
5.23258e-08
4.5065e-08
4.35042e-08
4.33684e-08
4.3352e-08
4.12946e-08
4.22304e-08
4.83868e-08
4.84453e-08
4.73997e-08
4.68024e-08
5.37327e-08
5.23626e-08
2.57943e-07
2.5236e-07
1.89291e-07
1.78705e-07
1.20099e-07
1.13647e-07
1.53437e-07
1.45672e-07
1.70517e-07
1.61733e-07
1.51822e-07
1.43043e-07
1.6698e-07
1.76674e-07
1.45154e-07
1.54982e-07
1.30927e-07
1.40507e-07
1.04765e-07
9.85388e-08
1.16486e-07
1.24034e-07
9.05867e-08
8.88917e-08
9.79486e-08
9.39287e-08
8.37566e-08
8.86249e-08
7.4069e-08
6.96571e-08
7.4503e-08
7.60988e-08
5.56446e-08
5.53687e-08
6.56834e-08
6.83469e-08
7.13249e-08
7.50034e-08
8.21549e-08
8.72518e-08
9.33694e-08
9.87921e-08
2.85844e-06
3.00792e-06
1.65098e-06
1.73666e-06
1.15577e-06
1.09608e-06
2.01693e-06
2.02928e-06
2.26914e-06
2.15418e-06
3.23337e-06
3.40332e-06
5.9711e-06
6.01646e-06
5.19239e-06
5.16442e-06
7.42034e-06
7.05188e-06
9.49798e-05
9.87612e-05
0.000139441
0.000140402
2.02689e-05
2.01564e-05
4.37224e-05
4.35479e-05
7.01827e-08
7.55367e-08
4.05994e-08
4.12143e-08
1.22762e-07
1.2595e-07
7.24843e-08
7.73333e-08
7.81025e-08
7.2417e-08
1.06604e-07
1.00314e-07
1.25262e-05
1.23221e-05
8.35948e-05
8.41989e-05
5.83749e-07
5.88526e-07
4.35717e-07
4.51592e-07
4.29441e-07
4.17382e-07
3.60335e-07
3.66444e-07
3.6224e-07
3.48167e-07
5.05448e-08
5.20429e-08
4.67156e-08
4.55817e-08
4.44863e-08
4.37063e-08
4.93596e-08
4.80839e-08
5.17347e-08
5.13593e-08
6.16808e-08
5.9201e-08
6.77871e-08
7.12462e-08
1.61563e-07
1.60808e-07
8.90352e-08
9.27061e-08
9.18839e-08
1.0134e-07
1.11904e-07
5.48205e-08
5.52977e-08
4.39742e-08
4.45688e-08
4.23139e-08
4.2783e-08
4.24208e-08
4.27622e-08
4.08415e-08
4.05109e-08
8.64832e-08
8.61276e-08
6.42771e-08
6.70046e-08
7.1011e-08
7.06661e-08
4.85953e-08
4.75474e-08
4.54745e-08
4.45875e-08
8.43807e-08
8.91122e-08
8.82398e-08
7.25481e-08
7.33084e-08
7.57938e-08
5.90952e-08
5.66051e-08
5.53036e-08
5.58479e-08
5.82495e-08
7.56646e-08
8.11709e-08
1.09508e-07
5.88978e-08
4.22199e-08
4.34312e-08
3.62929e-08
3.66457e-08
3.61034e-08
3.59595e-08
3.61646e-08
3.66262e-08
5.80012e-08
5.80431e-08
6.0756e-08
5.73876e-08
6.03129e-08
4.6322e-08
4.47592e-08
4.27093e-08
4.41714e-08
4.21e-08
4.08132e-08
4.16688e-08
4.11688e-08
4.34474e-08
4.47717e-08
5.13776e-08
5.07485e-08
4.65189e-08
4.65513e-08
4.93391e-08
5.12407e-08
1.97015e-07
1.91426e-07
2.23031e-07
2.28035e-07
2.28487e-07
2.26071e-07
1.8263e-07
1.77668e-07
1.29268e-07
1.21664e-07
1.25866e-07
1.19353e-07
1.46878e-07
1.39146e-07
1.68675e-07
1.77456e-07
1.46229e-07
1.37465e-07
1.50219e-07
1.60047e-07
1.3554e-07
1.45239e-07
1.00269e-07
9.41299e-08
1.01414e-07
9.84024e-08
1.08129e-07
1.1344e-07
7.21366e-08
7.57036e-08
7.28379e-08
7.73701e-08
7.01478e-08
7.27215e-08
6.15047e-08
6.20536e-08
6.59446e-08
6.30032e-08
6.3781e-08
7.04997e-08
6.6388e-08
9.26617e-08
9.31882e-08
8.11009e-08
7.66256e-08
9.64056e-08
9.0978e-08
1.75374e-07
1.67672e-07
2.86182e-06
2.8659e-06
1.915e-06
2.01471e-06
1.84826e-06
1.83542e-06
9.76308e-07
1.02881e-06
1.34228e-06
1.27329e-06
1.52481e-06
1.44453e-06
6.7122e-06
7.08872e-06
3.99703e-06
4.01498e-06
3.67513e-06
3.65218e-06
5.02867e-06
4.79722e-06
4.92066e-06
4.69135e-06
6.38729e-06
6.08197e-06
6.31381e-06
6.64269e-06
2.88488e-05
2.74046e-05
8.96912e-05
8.58391e-05
0.000106263
0.00010996
0.000137416
0.000138351
0.000143161
0.000144178
2.13299e-05
2.14136e-05
0.000158977
0.000157592
0.00015872
8.00667e-08
7.8456e-08
4.02811e-08
4.17451e-08
4.32732e-08
3.59515e-08
3.73515e-08
3.33971e-08
3.23143e-08
1.10793e-07
1.13404e-07
8.37841e-08
8.04778e-08
7.99761e-08
7.53408e-08
5.55707e-08
5.73998e-08
5.92971e-08
5.72325e-08
2.27465e-07
2.47806e-07
2.66611e-05
2.80296e-05
1.47845e-05
1.45397e-05
2.20995e-05
2.17239e-05
5.74983e-05
5.69275e-05
4.22598e-07
4.0238e-07
2.81277e-07
2.92258e-07
4.20323e-07
4.36388e-07
4.68445e-07
4.8639e-07
3.93303e-07
4.04189e-07
3.54528e-07
3.54995e-07
3.59459e-07
3.4285e-07
3.48841e-07
6.00397e-08
5.78227e-08
4.77007e-08
4.88257e-08
4.58186e-08
4.50842e-08
4.54875e-08
4.8208e-08
4.74764e-08
4.69672e-08
5.30663e-08
5.17526e-08
5.94496e-08
5.99482e-08
5.69702e-08
5.47966e-08
7.50783e-08
7.16015e-08
1.50218e-07
1.48838e-07
8.33561e-08
8.69303e-08
9.70116e-08
8.84014e-08
5.74582e-08
5.85185e-08
4.37065e-08
4.31999e-08
4.37428e-08
4.38971e-08
4.23893e-08
4.29294e-08
4.09778e-08
4.13754e-08
7.8174e-08
7.78255e-08
6.99703e-08
7.31912e-08
5.7127e-08
5.46582e-08
4.86644e-08
4.98827e-08
4.47178e-08
4.39151e-08
7.81414e-08
7.3812e-08
7.41973e-08
1.22242e-07
1.2855e-07
1.18721e-07
8.58558e-08
8.84775e-08
9.81753e-08
1.0148e-07
1.0423e-07
1.12459e-07
5.71419e-08
5.36307e-08
7.32519e-08
6.8949e-08
3.69206e-08
3.62603e-08
3.72416e-08
3.77331e-08
3.69034e-08
3.73663e-08
3.62157e-08
3.58785e-08
5.10186e-08
5.19096e-08
5.50496e-08
4.79849e-08
4.61769e-08
4.22267e-08
4.3612e-08
3.97983e-08
3.98728e-08
4.34287e-08
4.24111e-08
5.04716e-08
5.05536e-08
4.95931e-08
4.83219e-08
2.43141e-07
2.48834e-07
2.47253e-07
2.42612e-07
2.1532e-07
2.17909e-07
1.66231e-07
1.71255e-07
1.41027e-07
1.14666e-07
1.08284e-07
1.38669e-07
1.4533e-07
1.63941e-07
1.55156e-07
1.32185e-07
1.40921e-07
1.21939e-07
1.13588e-07
8.54315e-08
8.37695e-08
1.20339e-07
1.258e-07
9.93069e-08
1.03417e-07
8.42105e-08
8.80595e-08
7.22033e-08
6.87597e-08
7.40303e-08
7.66674e-08
6.93321e-08
6.8785e-08
5.33944e-08
5.28926e-08
5.27911e-08
5.30646e-08
6.12229e-08
6.30337e-08
6.25877e-08
9.8385e-08
9.88807e-08
7.92734e-08
7.47654e-08
9.46018e-08
8.9173e-08
3.00254e-06
3.00518e-06
3.01121e-06
3.01533e-06
2.12851e-06
2.13228e-06
1.82673e-06
1.82949e-06
9.70718e-07
9.24658e-07
1.03175e-06
9.78985e-07
1.34725e-06
1.27771e-06
1.90068e-06
2.00498e-06
2.04473e-06
2.03366e-06
3.39175e-06
3.39789e-06
4.20457e-06
4.22387e-06
3.15385e-06
3.13355e-06
8.09125e-06
8.51209e-06
5.41332e-06
5.4483e-06
5.67151e-06
5.94949e-06
4.71708e-06
4.49557e-06
4.86508e-06
4.63802e-06
7.74486e-06
8.15123e-06
6.27174e-06
5.96271e-06
6.70172e-06
6.3675e-06
1.1584e-05
1.1666e-05
9.03161e-05
9.09091e-05
0.000110808
0.000107062
0.000136362
0.000137284
0.000125523
0.00012132
4.1298e-05
4.34133e-05
2.14769e-05
2.03481e-05
4.40673e-05
4.38956e-05
5.83874e-05
5.8094e-05
4.83492e-08
4.6044e-08
4.55834e-08
7.17992e-08
7.72129e-08
4.95421e-08
5.24345e-08
4.78931e-08
4.41866e-08
4.0258e-07
4.28839e-07
3.91169e-08
4.07991e-08
1.29328e-07
1.32639e-07
1.16258e-07
1.19271e-07
6.96932e-08
7.4788e-08
6.5805e-08
6.86019e-08
6.6922e-08
6.53906e-08
1.75052e-07
1.63722e-07
2.71175e-07
2.69434e-07
4.9087e-05
5.05134e-05
1.14694e-05
1.12809e-05
1.53618e-05
1.56214e-05
1.4297e-05
1.40561e-05
6.76731e-05
6.69499e-05
4.60188e-05
4.53307e-05
1.70631e-07
1.62214e-07
9.74009e-07
9.70417e-07
5.79413e-07
5.69782e-07
2.00158e-07
1.90314e-07
3.24936e-07
3.129e-07
4.58418e-07
4.42645e-07
3.874e-07
3.98382e-07
3.84482e-07
3.7428e-07
3.52745e-07
3.61415e-07
3.65632e-07
1.87876e-07
4.79579e-08
4.92428e-08
4.35812e-08
4.43368e-08
5.01816e-08
5.13521e-08
5.2437e-08
5.08061e-08
5.76062e-08
5.71534e-08
6.84941e-08
6.53665e-08
6.76059e-08
6.42457e-08
1.59971e-07
1.59805e-07
1.681e-07
1.3609e-07
1.39123e-07
7.27214e-08
7.58966e-08
1.04347e-07
1.07255e-07
5.2954e-08
5.15635e-08
5.20117e-08
5.3041e-08
4.58288e-08
4.62981e-08
4.34302e-08
4.14618e-08
4.19062e-08
4.31069e-08
4.34716e-08
7.40187e-08
7.70688e-08
8.04367e-08
7.90437e-08
6.57286e-08
6.30345e-08
5.00624e-08
5.17168e-08
6.08433e-08
5.93992e-08
5.76475e-08
6.97886e-08
6.65985e-08
8.03775e-08
7.57139e-08
9.82455e-08
9.27358e-08
9.37314e-08
7.37181e-08
7.05032e-08
7.49659e-08
8.01749e-08
8.23134e-08
9.19197e-08
9.48843e-08
1.07033e-07
1.15217e-07
6.11729e-08
4.14162e-08
4.1646e-08
3.78441e-08
3.75938e-08
3.70563e-08
3.66414e-08
3.68492e-08
3.68303e-08
4.76436e-08
4.69155e-08
5.33054e-08
5.53746e-08
4.84239e-08
4.66058e-08
4.45744e-08
4.31789e-08
4.42043e-08
4.36517e-08
4.08934e-08
4.08353e-08
4.86678e-08
4.92833e-08
2.23408e-07
2.29393e-07
2.03117e-07
2.07717e-07
2.33088e-07
2.37897e-07
2.24139e-07
2.22367e-07
1.55468e-07
1.60393e-07
1.55266e-07
1.50297e-07
1.27158e-07
1.34811e-07
1.31984e-07
1.25413e-07
1.31054e-07
1.22433e-07
1.05857e-07
1.07488e-07
1.17632e-07
1.22093e-07
9.28333e-08
8.88985e-08
8.79754e-08
9.29445e-08
7.19336e-08
7.0368e-08
7.8243e-08
8.09428e-08
6.49305e-08
6.53815e-08
5.54828e-08
5.60111e-08
5.85292e-08
5.82324e-08
5.85887e-08
6.04135e-08
9.84695e-08
9.91299e-08
1.04443e-07
1.04869e-07
8.58834e-08
8.40706e-08
2.85557e-06
2.85275e-06
2.24047e-06
2.24459e-06
2.02587e-06
1.92501e-06
1.34569e-06
1.27604e-06
1.74187e-06
1.7287e-06
9.00876e-07
8.93008e-07
9.28817e-07
9.26372e-07
1.08409e-06
1.14237e-06
1.20791e-06
1.20387e-06
1.53277e-06
1.45178e-06
1.96126e-06
1.86035e-06
6.73903e-06
7.09533e-06
3.22832e-06
3.22258e-06
3.00357e-06
3.16266e-06
2.93806e-06
2.91885e-06
3.42627e-06
3.40344e-06
3.69807e-06
6.73364e-06
6.38561e-06
6.05334e-06
5.74062e-06
5.36889e-06
5.64248e-06
5.91909e-06
4.74269e-06
4.52034e-06
4.47082e-06
4.44558e-06
4.90069e-06
4.8721e-06
5.13265e-06
5.4077e-06
7.52301e-06
7.15561e-06
6.33198e-06
6.02628e-06
6.76059e-06
6.4221e-06
1.12668e-05
1.07058e-05
8.87262e-06
8.82378e-06
8.26599e-05
8.6199e-05
7.9883e-05
8.35939e-05
0.000103285
0.000102526
0.000129812
0.000132503
0.000138442
0.00013939
0.000130205
0.000133476
4.11871e-05
4.32827e-05
1.85251e-05
1.84616e-05
2.98274e-05
2.98195e-05
4.8882e-05
4.90913e-05
4.5934e-05
4.61325e-05
8.17645e-05
8.15144e-05
0.00015749
0.000157375
5.17894e-08
4.86343e-08
6.52766e-08
6.70449e-08
4.71948e-08
4.93896e-08
5.67924e-08
5.97492e-08
4.35067e-08
4.44813e-08
4.6883e-08
8.76987e-08
8.59645e-08
3.04301e-08
2.98061e-08
1.22463e-07
1.28219e-07
1.25462e-07
1.07139e-07
1.0459e-07
8.01465e-08
8.55226e-08
5.38188e-08
5.38813e-08
5.22966e-08
5.14455e-08
6.20306e-08
6.15482e-08
7.25446e-08
2.30133e-07
2.24987e-07
2.49604e-07
2.29282e-07
2.22955e-05
2.19441e-05
5.93908e-05
5.9882e-05
2.32498e-05
2.35294e-05
1.39826e-05
1.37744e-05
1.62289e-05
1.65041e-05
6.54114e-05
6.4582e-05
4.75305e-05
4.82481e-05
2.29174e-07
2.16966e-07
1.93931e-07
1.84436e-07
9.24099e-07
9.26973e-07
8.07747e-07
7.72826e-07
6.69778e-07
6.66393e-07
5.92326e-07
5.95106e-07
3.01422e-07
2.90467e-07
4.61156e-07
4.79179e-07
4.94904e-07
5.12297e-07
3.82917e-07
3.93987e-07
4.05913e-07
3.94989e-07
3.47441e-07
3.40437e-07
5.32208e-08
5.49773e-08
5.20574e-08
5.38107e-08
4.47975e-08
4.39318e-08
4.6e-08
4.51258e-08
5.34926e-08
5.49437e-08
5.54563e-08
5.50449e-08
6.24918e-08
5.95517e-08
6.44402e-08
6.15609e-08
1.23168e-07
1.23527e-07
1.30886e-07
8.0449e-08
8.19398e-08
7.70669e-08
7.96212e-08
9.5974e-08
9.95038e-08
5.36008e-08
5.5695e-08
4.42343e-08
4.52167e-08
4.20952e-08
4.16083e-08
8.88109e-08
8.73766e-08
7.5309e-08
7.66756e-08
4.39869e-08
4.3377e-08
5.08746e-08
4.96936e-08
4.75563e-08
4.87409e-08
8.75958e-08
9.34996e-08
9.06917e-08
7.36071e-08
7.56775e-08
6.64905e-08
6.38261e-08
8.18308e-08
7.96761e-08
7.72624e-08
6.98792e-08
1.01724e-07
1.01085e-07
2.38204e-07
2.35872e-07
6.73819e-08
6.37714e-08
7.62151e-08
8.34282e-08
7.81467e-08
1.04148e-07
1.08013e-07
1.10904e-07
9.70389e-08
9.97204e-08
4.0421e-08
3.96679e-08
3.99244e-08
4.04594e-08
3.71746e-08
3.6964e-08
3.52022e-08
3.49525e-08
3.51395e-08
3.81049e-08
3.81534e-08
3.69157e-08
3.71135e-08
4.58101e-08
4.51699e-08
5.28983e-08
5.09763e-08
5.26542e-08
5.0469e-08
4.46489e-08
4.63255e-08
4.23345e-08
4.28618e-08
2.13189e-07
2.19326e-07
2.54999e-07
2.64012e-07
2.12605e-07
2.17822e-07
1.9021e-07
1.94493e-07
1.94013e-07
2.03012e-07
2.02768e-07
1.99362e-07
1.6456e-07
1.68368e-07
1.58972e-07
1.60894e-07
1.32979e-07
1.40674e-07
1.01705e-07
9.9971e-08
1.15447e-07
1.11119e-07
1.14043e-07
1.19433e-07
8.36207e-08
7.98586e-08
9.25072e-08
9.75692e-08
6.80979e-08
6.65615e-08
6.49839e-08
6.55255e-08
5.83453e-08
5.88889e-08
5.60732e-08
5.78973e-08
9.27228e-08
9.33711e-08
7.91636e-07
7.89937e-07
2.37116e-06
2.36712e-06
2.43105e-06
2.55804e-06
1.91102e-06
2.01027e-06
1.64882e-06
1.73401e-06
1.27208e-06
1.34432e-06
2.43913e-06
2.45406e-06
1.35189e-06
1.4265e-06
1.00531e-06
1.00929e-06
1.17415e-06
1.1066e-06
1.03472e-06
9.81825e-07
1.35728e-06
1.28642e-06
1.14598e-06
1.08734e-06
1.21183e-06
1.54177e-06
1.46019e-06
1.61783e-06
1.40947e-06
1.48559e-06
1.83234e-06
1.9305e-06
8.49292e-06
8.94289e-06
7.89857e-06
7.49259e-06
4.8999e-06
4.90833e-06
3.53457e-06
3.52396e-06
2.62901e-06
2.61479e-06
2.70752e-06
2.57e-06
3.78944e-06
3.81196e-06
3.25553e-06
3.2338e-06
3.99186e-06
3.96642e-06
7.0072e-06
7.37681e-06
5.70281e-06
5.65374e-06
4.5714e-06
4.54542e-06
5.18494e-06
5.43326e-06
4.66507e-06
4.89351e-06
4.20033e-06
4.17437e-06
5.4444e-06
5.47929e-06
7.10719e-06
7.47255e-06
6.5975e-06
6.65618e-06
5.69679e-06
5.99873e-06
7.88036e-06
7.48764e-06
2.1425e-05
2.25952e-05
9.50857e-06
9.04043e-06
9.8092e-06
9.85984e-06
8.91609e-06
3.26385e-05
3.43174e-05
0.000118864
0.000114464
8.83655e-05
8.45937e-05
0.000113975
0.000110097
0.000112355
0.000108533
0.000119843
0.000116142
0.000133507
0.000130778
0.000137736
0.000136761
0.000135143
0.000131783
0.000142271
0.000143274
1.03868e-05
9.87153e-06
2.97722e-05
2.98661e-05
3.73037e-05
3.74407e-05
3.29508e-05
3.47349e-05
5.10607e-05
5.13213e-05
4.63261e-05
4.6515e-05
7.50219e-05
7.46867e-05
0.000124099
0.00012387
0.000159994
0.000160678
1.70709e-07
1.68479e-07
7.29546e-08
6.84591e-08
7.08631e-08
6.10464e-08
6.28519e-08
5.76797e-08
5.91066e-08
6.04961e-08
5.17824e-08
3.86716e-08
1.25259e-07
1.3034e-07
5.80836e-08
6.07445e-08
3.11199e-08
3.08482e-08
4.25989e-08
4.07996e-08
1.19603e-07
1.1691e-07
7.42712e-08
7.07909e-08
9.03781e-08
8.50023e-08
5.26137e-08
5.50692e-08
5.19681e-08
5.68974e-08
5.52163e-08
5.45909e-08
5.72868e-08
8.80927e-08
8.33793e-08
8.29058e-08
3.58155e-07
3.60428e-07
1.82754e-07
1.71394e-07
7.98723e-07
7.53163e-07
8.16527e-06
8.17106e-06
3.36758e-05
3.20722e-05
5.85585e-05
5.90428e-05
2.60429e-05
2.47557e-05
9.28023e-06
9.39864e-06
1.45651e-05
1.47858e-05
1.35314e-05
1.33044e-05
1.87947e-05
1.84756e-05
2.71092e-05
2.66739e-05
8.21915e-05
8.27971e-05
5.52749e-05
5.44539e-05
0.000100727
0.000103258
1.66345e-07
1.5805e-07
1.75472e-07
1.66961e-07
5.92202e-07
6.20574e-07
7.27553e-07
7.66371e-07
6.95166e-07
7.11706e-07
6.88919e-07
5.72221e-07
5.69196e-07
2.39412e-07
2.51716e-07
3.64065e-07
3.7706e-07
4.53411e-07
4.71489e-07
4.86628e-07
5.04273e-07
4.84796e-07
4.69774e-07
3.31574e-07
3.40702e-07
3.90877e-07
4.01798e-07
3.74499e-07
3.84293e-07
1.95384e-07
1.95078e-07
5.12217e-08
5.29433e-08
5.36597e-08
5.57546e-08
4.53649e-08
4.5765e-08
4.43298e-08
4.36112e-08
5.5418e-08
5.70097e-08
5.01715e-08
4.9813e-08
6.20406e-08
6.47964e-08
1.73652e-07
1.72429e-07
1.23822e-07
8.49851e-08
4.29837e-08
4.2543e-08
8.3062e-08
8.44779e-08
4.28309e-08
5.11813e-08
5.25873e-08
4.88808e-08
5.01465e-08
6.54392e-08
6.35777e-08
6.79671e-08
6.41958e-08
6.18258e-08
6.18386e-08
8.69129e-08
9.49941e-08
9.37791e-08
1.29774e-07
1.63571e-07
1.62039e-07
6.46015e-08
6.08421e-08
8.09539e-08
7.83729e-08
9.55342e-08
8.92782e-08
1.188e-07
4.34691e-08
4.5188e-08
4.85789e-08
4.07872e-08
4.03155e-08
3.99336e-08
4.10394e-08
3.91522e-08
3.99517e-08
3.58676e-08
3.58838e-08
3.51245e-08
3.52473e-08
3.88914e-08
3.89675e-08
3.77317e-08
3.75131e-08
4.82128e-08
4.68143e-08
4.96807e-08
4.8863e-08
4.80997e-08
5.00732e-08
1.7035e-07
1.75554e-07
1.92767e-07
1.9917e-07
2.25867e-07
2.358e-07
2.45555e-07
2.1839e-07
2.141e-07
2.21095e-07
2.31374e-07
2.20495e-07
2.1019e-07
1.84045e-07
1.76136e-07
1.87321e-07
1.71794e-07
8.55558e-08
8.2793e-08
9.60325e-08
9.43054e-08
1.27072e-07
1.32584e-07
7.95034e-08
7.58349e-08
6.87925e-08
6.93203e-08
6.00192e-08
5.91843e-08
9.22792e-07
9.64229e-07
4.80298e-07
4.80667e-07
5.51068e-06
5.23715e-06
1.31384e-06
1.24627e-06
1.29557e-06
1.36091e-06
2.231e-06
2.22554e-06
1.64393e-06
1.72817e-06
1.92194e-06
2.02244e-06
1.82373e-06
1.06868e-06
1.02187e-06
2.21075e-06
2.19626e-06
2.3438e-06
2.46873e-06
1.31958e-06
1.25729e-06
9.80055e-07
9.33722e-07
9.424e-07
9.4976e-07
9.41653e-07
9.46065e-07
8.80976e-07
8.35291e-07
9.3155e-07
1.21562e-06
1.21925e-06
1.14948e-06
1.09052e-06
1.55157e-06
1.4696e-06
1.60127e-06
1.60921e-06
2.3094e-06
2.19122e-06
1.94061e-06
1.84155e-06
7.76566e-06
8.16975e-06
7.48297e-06
7.88755e-06
5.10747e-06
5.35618e-06
4.88928e-06
2.76718e-06
2.76242e-06
3.97826e-06
4.18422e-06
3.12716e-06
3.14506e-06
2.86799e-06
2.88369e-06
2.79072e-06
2.77274e-06
3.21422e-06
3.19422e-06
3.44883e-06
3.27702e-06
3.79393e-06
3.76917e-06
4.01635e-06
8.28867e-06
7.87285e-06
6.35301e-06
6.70235e-06
4.76896e-06
4.99867e-06
5.98903e-06
5.71097e-06
4.94682e-06
4.97236e-06
4.52892e-06
4.31629e-06
4.65317e-06
4.62607e-06
4.9247e-06
7.80384e-06
8.21301e-06
6.43743e-06
6.13093e-06
6.71137e-06
6.04712e-06
5.73942e-06
8.01935e-06
7.61909e-06
7.11488e-06
9.61554e-06
9.594e-06
9.55832e-06
9.08602e-06
9.42736e-06
9.46471e-06
9.89702e-06
9.39088e-06
2.72224e-05
2.86554e-05
6.43697e-05
6.49529e-05
0.000108227
0.000106839
0.0001102
8.90373e-05
8.52299e-05
8.73839e-05
9.11844e-05
9.94845e-05
9.56717e-05
0.000104707
0.000104014
0.000120639
0.000116871
0.000134479
0.000131708
0.000135758
0.000134724
0.000118509
0.000122682
0.00013432
0.000131001
0.000141264
0.000143798
1.42717e-05
1.50325e-05
1.66098e-05
1.75127e-05
3.11187e-05
3.12309e-05
2.65767e-05
2.66358e-05
2.06324e-05
1.96273e-05
3.14865e-05
3.15198e-05
3.69555e-05
3.68441e-05
5.08879e-05
4.83707e-05
5.15697e-05
5.18036e-05
5.56024e-05
5.53081e-05
7.43397e-05
7.40185e-05
0.000153582
0.00015414
0.000159873
0.000160035
0.000160466
2.05336e-07
2.14652e-07
3.31037e-08
3.41453e-08
6.29232e-08
6.00306e-08
6.38768e-08
7.38292e-08
6.30242e-08
6.20944e-08
5.13649e-08
5.58029e-08
5.87767e-08
5.58165e-08
4.00565e-07
4.26428e-07
8.01723e-08
8.19094e-08
4.00541e-08
4.18995e-08
3.18695e-08
3.18089e-08
3.02323e-08
2.96827e-08
3.29852e-08
3.238e-08
3.91252e-08
3.99157e-08
1.05974e-07
9.93198e-08
7.73803e-08
7.40998e-08
9.09079e-08
9.35568e-08
9.6082e-08
5.33878e-08
5.67609e-08
5.58383e-08
4.40166e-08
4.17369e-08
5.9651e-08
5.7978e-08
6.31387e-08
3.49829e-08
3.36439e-08
3.33311e-08
2.44729e-07
2.40473e-07
2.35489e-07
1.90375e-07
2.0834e-07
1.40887e-06
1.38805e-06
2.2519e-06
2.26351e-06
1.35483e-05
1.33913e-05
3.77182e-05
3.59027e-05
3.4118e-05
3.24955e-05
5.77578e-05
5.82357e-05
4.78484e-05
4.97623e-05
2.44618e-05
2.57341e-05
9.11399e-06
8.97441e-06
1.53987e-05
1.56325e-05
1.57786e-05
1.60285e-05
1.28062e-05
1.25923e-05
1.87265e-05
1.90411e-05
2.09429e-05
2.05866e-05
6.03655e-05
5.94055e-05
7.96403e-05
8.1104e-05
8.64348e-05
8.705e-05
5.05979e-05
4.98772e-05
5.5219e-05
5.45392e-05
7.4127e-05
7.67322e-05
0.000113117
0.000113956
1.84604e-07
1.75163e-07
1.89864e-07
1.9938e-07
6.14091e-07
5.85594e-07
7.7255e-07
7.33862e-07
5.25142e-07
5.16631e-07
6.82239e-07
6.88649e-07
5.65198e-07
5.60294e-07
3.35191e-07
3.53702e-07
2.88676e-07
2.79898e-07
4.45309e-07
4.63436e-07
4.44216e-07
4.28239e-07
4.91193e-07
5.08714e-07
4.55577e-07
4.4216e-07
3.35728e-07
3.27836e-07
3.77504e-07
3.88681e-07
3.70696e-07
3.80517e-07
3.94664e-07
4.05557e-07
2.08736e-07
2.16442e-07
4.93579e-08
4.87535e-08
5.02993e-08
5.5386e-08
5.73438e-08
4.63549e-08
4.6874e-08
5.42604e-08
1.76835e-07
1.94362e-07
1.88423e-07
4.39238e-08
4.37232e-08
4.33953e-08
5.30163e-08
5.52205e-08
7.95233e-08
7.61863e-08
5.58943e-08
5.85239e-08
5.97882e-08
7.17872e-08
1.04154e-07
1.7329e-07
1.72918e-07
1.28044e-07
1.3684e-07
1.38594e-07
6.73089e-08
7.08731e-08
9.29748e-08
9.02881e-08
4.91521e-08
5.0828e-08
5.22049e-08
4.28667e-08
4.34242e-08
3.87616e-08
3.77372e-08
3.94901e-08
3.90089e-08
4.00746e-08
4.10002e-08
3.63154e-08
3.63302e-08
3.56447e-08
3.55183e-08
3.92321e-08
3.8978e-08
3.74225e-08
3.74524e-08
4.87815e-08
5.03681e-08
2.07428e-07
2.02013e-07
2.05944e-07
2.15879e-07
2.39274e-07
2.33442e-07
1.98745e-07
2.10126e-07
2.12381e-07
2.13829e-07
1.65323e-07
8.76758e-08
9.05064e-08
8.06005e-08
7.89714e-08
1.09241e-07
1.05032e-07
6.14126e-08
6.17716e-08
3.57787e-07
3.45144e-07
2.40041e-07
2.43212e-07
5.09421e-07
5.08537e-07
4.67103e-06
4.66803e-06
4.74125e-06
4.74417e-06
1.22517e-06
1.16522e-06
1.65552e-06
1.74173e-06
1.7543e-06
1.66756e-06
1.0946e-06
1.04612e-06
2.48261e-06
2.48758e-06
2.12439e-06
2.23591e-06
1.8206e-06
1.81705e-06
1.91855e-06
2.01867e-06
1.07356e-06
1.02689e-06
2.0981e-06
2.08381e-06
2.32933e-06
2.31464e-06
1.68937e-06
1.60691e-06
1.00004e-06
9.52714e-07
9.89976e-07
9.43168e-07
9.55917e-07
9.08416e-07
1.09346e-06
1.16134e-06
8.84718e-07
8.76169e-07
9.34574e-07
9.37919e-07
8.33344e-07
8.78785e-07
1.28208e-06
1.35224e-06
1.62731e-06
1.63752e-06
1.50436e-06
1.42627e-06
2.17876e-06
2.29587e-06
1.95084e-06
1.85086e-06
8.45337e-06
8.9014e-06
8.62636e-06
9.08205e-06
7.47591e-06
7.87821e-06
5.15552e-06
5.16668e-06
4.20474e-06
4.20892e-06
2.90822e-06
2.91328e-06
3.1496e-06
3.31448e-06
2.94234e-06
2.95577e-06
2.98666e-06
2.96948e-06
2.60017e-06
2.58522e-06
2.47806e-06
2.4631e-06
3.98306e-06
4.00665e-06
3.53771e-06
3.55966e-06
3.47121e-06
3.49344e-06
3.11323e-06
3.09285e-06
4.04e-06
4.06322e-06
3.60558e-06
3.58169e-06
6.58836e-06
6.27139e-06
7.83558e-06
8.24803e-06
6.32249e-06
6.67388e-06
4.67407e-06
4.65072e-06
5.13155e-06
5.38062e-06
5.6949e-06
5.9736e-06
5.88333e-06
5.60882e-06
4.55481e-06
4.34128e-06
4.42032e-06
4.39395e-06
7.6828e-06
8.08631e-06
6.48248e-06
6.17416e-06
6.88013e-06
6.53738e-06
6.09692e-06
5.78298e-06
7.23979e-06
7.17761e-06
2.13511e-05
2.25211e-05
1.16543e-05
1.2259e-05
9.99476e-06
1.00506e-05
1.04374e-05
1.04426e-05
9.34963e-06
9.29983e-06
3.23251e-05
3.39883e-05
6.72345e-05
7.03791e-05
0.00011686
0.000118291
0.000100302
9.60952e-05
9.43008e-05
9.49462e-05
9.68087e-05
9.29057e-05
9.38892e-05
9.00558e-05
9.18398e-05
8.79895e-05
0.000100191
9.6359e-05
0.000107822
0.00011161
0.000133027
0.000133924
0.00013542
0.000132607
0.000124078
0.000119841
0.000135943
0.00013255
0.00014486
0.000145904
0.000146453
0.000147524
1.29242e-05
1.29387e-05
1.50539e-05
1.4292e-05
1.75816e-05
1.66833e-05
3.13331e-05
3.14309e-05
2.26203e-05
2.26373e-05
2.06143e-05
1.96371e-05
3.32518e-05
3.33163e-05
3.13888e-05
2.97557e-05
4.11268e-05
3.89906e-05
3.67297e-05
3.66125e-05
4.86637e-05
4.84371e-05
6.21189e-05
6.15339e-05
7.80149e-05
7.83013e-05
0.00011149
0.000107063
0.000105652
0.000105755
0.000148358
0.00014823
0.000158419
2.24487e-07
2.3381e-07
1.54809e-07
1.63529e-07
3.58618e-08
3.7271e-08
8.15079e-08
8.07811e-08
5.3233e-08
5.69992e-08
6.66717e-08
6.85732e-08
4.8554e-08
4.76455e-08
4.56586e-08
4.61109e-08
5.40042e-08
5.15441e-08
3.86122e-08
3.65132e-08
1.70039e-07
1.74747e-07
1.45601e-07
1.42002e-07
7.74511e-08
7.42444e-08
5.93941e-08
6.3109e-08
4.09338e-08
3.91454e-08
3.2629e-08
3.27594e-08
3.27936e-08
3.23451e-08
3.01468e-08
2.9663e-08
3.35832e-08
3.45794e-08
3.00588e-08
3.04671e-08
3.74552e-08
3.78283e-08
8.95612e-08
9.38439e-08
9.22647e-08
7.73523e-08
8.79182e-08
8.25109e-08
6.69274e-08
6.21657e-08
5.26683e-08
5.0433e-08
4.8673e-08
4.6578e-08
4.51417e-08
4.85602e-08
8.02156e-08
7.80761e-08
8.39751e-08
4.68749e-08
4.67648e-08
6.4597e-08
6.30663e-08
2.62642e-07
2.53347e-07
2.52281e-07
2.43831e-07
1.8714e-07
1.95073e-07
2.52731e-07
2.32531e-07
3.44312e-07
3.42756e-07
7.76194e-07
7.41665e-07
4.50643e-07
4.52319e-07
1.28179e-05
1.21212e-05
1.08937e-05
1.02852e-05
2.47911e-05
2.35141e-05
2.39256e-05
2.52172e-05
5.10901e-05
4.96488e-05
5.8524e-05
5.77035e-05
5.16419e-05
5.34608e-05
1.99379e-05
1.8942e-05
1.0959e-05