/*--------------------------------*- C++ -*----------------------------------*\
  =========                 |
  \\      /  F ield         | OpenFOAM: The Open Source CFD Toolbox
   \\    /   O peration     | Website:  https://openfoam.org
    \\  /    A nd           | Version:  7
     \\/     M anipulation  |
\*---------------------------------------------------------------------------*/
FoamFile
{
    version     2.0;
    format      ascii;
    class       volScalarField;
    location    "2400";
    object      T;
}
// * * * * * * * * * * * * * * * * * * * * * * * * * * * * * * * * * * * * * //

dimensions      [0 0 0 1 0 0 0];

internalField   nonuniform List<scalar> 
238806
(
0.000390312
0.000366063
0.0008478
0.00120531
0.00105594
-3.45197e-05
-8.37263e-05
0.000273305
0.000296116
0.000689575
0.000674292
0.00104934
-3.99099e-05
-5.05569e-06
0.00131608
0.00126436
0.000745252
0.000713324
0.000217949
5.31921e-05
0.000245801
0.000305795
0.00110122
0.000908328
0.00112981
0.00080978
0.000798686
0.000874176
0.00106464
0.00128104
-3.71333e-05
-5.58529e-05
0.000681683
0.000641234
-0.000105421
-0.000105249
0.00456522
0.00462274
0.000667436
0.000644644
0.000655869
0.00117628
-7.16164e-05
-7.22953e-05
7.66233e-05
0.000234378
0.000851068
0.00080741
0.000593292
0.000533576
2.62746e-05
-3.65832e-05
-3.35694e-05
3.60871e-06
7.7629e-05
2.0448e-05
0.00070354
0.000698001
0.000682226
0.000733837
0.000711773
0.000793737
0.000667469
0.000637744
0.000615969
-2.64152e-05
9.07514e-05
0.000317027
0.000408662
0.000293486
0.000271302
0.000588665
0.000635305
0.000503716
0.000563245
6.58516e-05
0.000134284
-9.55041e-05
-9.45488e-05
0.000275473
0.000221646
0.00054655
0.000499042
0.000465841
0.000356068
0.000330048
0.000309917
0.000884546
0.000932074
0.000875659
0.000869399
0.000703888
0.000680463
0.000473577
0.00059101
-9.93825e-05
-9.9287e-05
0.000706498
0.000751792
0.00135406
0.000243983
8.80943e-05
0.000194223
1.56829e-05
-6.55228e-05
0.000372367
0.000417785
0.000451318
0.000507716
0.000615509
0.000659018
0.000328697
0.000257584
-4.43654e-05
1.19555e-05
-6.86535e-05
-6.4495e-05
0.00995868
0.0164858
0.0140873
0.00117794
0.00137672
0.000369202
0.000463175
-3.04924e-05
-8.08399e-05
0.0011106
0.0013198
0.000854763
0.00101798
0.00066222
0.000743547
0.000805873
0.00121928
0.000781422
0.000711551
0.000342468
0.00034565
0.00112297
0.00128955
0.00114393
0.00130926
0.000662535
0.000667487
0.000790583
0.000124831
0.00023613
0.000173201
7.07893e-05
0.000114599
0.000205108
5.71945e-05
0.000131655
0.00051631
0.00055955
0.00038274
0.000436031
0.000561776
0.000610589
0.000227596
0.000286625
5.11228e-05
0.000116554
-2.16303e-05
3.74735e-05
-7.74636e-05
-7.47763e-05
6.30659e-05
0.000105062
0.000779788
0.000787642
0.000525922
0.000480733
-0.00991842
-0.00657116
0.00718998
0.00036388
0.000465729
2.09555e-06
7.22299e-05
0.00115107
0.00138322
0.00136643
0.000805869
0.00079074
0.000774736
0.00072186
0.000949898
0.000477318
0.000478382
2.55667e-05
2.47505e-05
0.000699967
0.000853438
0.000783348
0.00079365
0.000738013
0.00122867
0.00149713
0.00105255
0.00128171
0.00053587
0.000390696
0.000359657
0.000445224
0.000337418
0.000424314
0.000410647
0.000389772
0.000184388
9.77045e-05
0.000901616
0.000938607
0.000580579
0.000618716
0.000646959
0.000606018
0.000765587
0.000722758
0.000534625
0.000476668
0.000233845
0.00030669
0.000179306
0.000105655
3.04052e-05
-2.46454e-05
-9.8308e-05
-9.75123e-05
-0.000105463
-0.000106311
0.000281202
0.000282149
-5.81582e-05
-5.8255e-05
0.000200406
0.000201531
0.000322217
0.000339146
0.000738008
0.000773127
0.00139076
0.00145947
0.000640718
0.000638883
0.000375257
0.000460257
9.7655e-05
1.5767e-05
0.000174514
0.000154659
0.000490811
0.000474071
0.000698832
0.000731379
0.000766834
0.000792755
0.000712992
0.000723436
0.000599112
0.000602882
2.4013e-05
2.51254e-05
-9.17652e-05
-9.95902e-05
0.000429561
0.00044778
0.000726631
0.000690393
0.000832013
0.000863904
0.000696723
0.00104799
0.000948613
0.00124139
0.00108453
0.000398723
0.000539421
0.000162995
0.000279661
0.000215086
0.000106078
0.000258498
0.000287056
-9.20336e-05
-0.000102052
-5.6825e-05
5.35284e-06
0.000690757
0.000672121
0.000825591
0.000861992
0.000561957
0.000600576
0.000641336
0.000677016
0.000653166
0.000692224
0.000699147
0.000739558
0.000535618
0.000585383
-2.41983e-05
1.47164e-05
0.000351963
0.000417094
-5.67338e-05
-9.73257e-06
8.34803e-05
0.000154661
-8.99382e-05
-0.000103006
-8.00656e-05
-9.91761e-05
4.44006e-05
3.31561e-05
0.000813839
0.000788866
-9.98944e-05
-0.000101132
-0.000126146
-0.000126377
0.000225729
0.000279774
-0.000112565
-0.000130995
0.000121971
0.000121262
0.0128562
0.00050819
0.00046457
0.00119831
0.00108145
0.000745062
0.000752919
0.000123488
0.000136403
0.00121881
0.00139943
0.000667702
0.000708514
-2.78006e-05
-7.68523e-05
8.50357e-05
8.9464e-06
0.000241736
0.000324898
0.0012158
0.00117248
0.000963835
0.00122767
0.000930723
0.000935796
0.000812202
0.000894144
-8.28951e-06
-1.63461e-05
5.52887e-05
-7.15666e-05
-7.21068e-05
-8.89854e-05
-9.9457e-05
0.000676548
0.000585995
0.000818953
0.000687844
0.00118151
0.001078
0.00132968
0.000690899
0.000664022
0.000938339
0.000859686
0.00147147
0.00113245
0.000991381
0.00109114
0.000584502
0.000687901
0.000812279
0.000678448
-1.3454e-05
0.000104672
0.000405803
0.00049186
0.000383487
0.000469632
0.000423428
0.000442574
0.000475997
0.000500014
-6.48158e-05
1.24854e-05
-2.96579e-05
5.48655e-05
-0.000101934
-9.51776e-05
8.27969e-05
0.000165784
0.000209283
0.000189461
0.000895552
0.000864976
0.000340391
0.000289293
0.000544379
0.000583262
0.000620502
0.000657056
0.000705696
0.000739759
0.000776034
0.000814892
0.00051064
0.000560406
2.37752e-05
-1.77521e-05
0.000328937
0.000392583
1.29933e-07
-5.10491e-05
1.7249e-05
3.22782e-05
-9.6773e-05
-9.62352e-05
-8.26002e-05
-0.000100084
5.66499e-05
0.00060514
0.000602648
-9.23131e-05
-9.36222e-05
-0.000122615
-0.000123115
-5.02476e-05
-5.22657e-05
0.000352685
0.000351479
0.000462934
0.000456664
-0.000129777
-0.000130375
0.000800487
0.000945135
-0.000137463
-0.000136765
0.000692245
0.000656272
0.00066231
0.000617538
0.000597426
0.00120012
0.00135299
0.00114959
0.00132413
7.7388e-05
2.06922e-05
0.00043462
0.000426922
0.0010051
0.000995421
0.0120153
0.0523496
0.00142716
0.00159734
0.000731242
0.000693517
0.000158215
0.000283452
-4.53731e-05
-8.70577e-05
0.000193123
0.000435645
0.000378797
0.000427939
0.000882427
0.00084602
0.00106113
0.00126581
0.000731472
0.000982856
0.00078375
0.000468934
0.000582479
0.000181582
0.000339279
0.000187925
0.00018755
-9.39005e-05
-9.97194e-05
-6.05892e-05
-6.46347e-05
-8.51519e-05
-8.72421e-05
0.00056758
0.000543642
0.000656005
0.000596653
0.00126494
0.000826962
0.000788286
0.000917312
0.00127845
0.0013671
0.00117656
0.00136833
0.000940174
0.000935684
0.000637344
0.000664745
0.000649293
0.000772548
0.000402027
0.000538585
0.000249149
0.000248804
0.000198718
0.000320772
0.000257834
0.000143982
0.000363741
0.000348505
0.000308829
0.00028984
9.86721e-05
0.000111809
-9.38704e-05
-0.000101908
0.000153104
0.000252147
-9.66978e-05
-0.000102485
-3.35591e-06
-6.09476e-05
0.000116162
4.63276e-05
0.000817278
0.000833478
0.00137126
0.00121933
0.000394536
0.000342328
0.000434334
0.000388583
0.000521035
0.000478414
0.000580497
0.000537256
0.000600147
0.000637576
0.00068402
0.000718279
0.000750699
0.000786418
0.000458554
0.000404467
0.00048703
0.000536207
-4.53489e-05
-7.58118e-05
0.000166712
0.000106937
0.00030675
0.000369277
0.000470548
0.000399899
-6.88176e-05
-3.13695e-05
-6.90754e-05
-9.69129e-05
0.000125283
0.000103303
8.57958e-05
7.02611e-05
-0.000105587
-0.000105738
2.26652e-05
1.2877e-05
0.00369928
0.0037922
0.000906045
0.000773889
-8.32236e-05
-8.52797e-05
6.60251e-05
0.000108366
-0.000118001
-0.000118185
0.00075252
0.000753092
0.000700972
0.000806296
-8.99537e-05
-0.000112592
-0.000112181
-0.000111831
0.000882346
0.000888413
0.00207576
0.00209023
-0.000146129
-0.000144988
-0.00010209
-6.09628e-05
0.000779865
0.00083541
0.000693001
0.000841307
0.000678372
0.000653404
0.000563812
0.000594459
0.000693987
0.000648425
0.00105799
0.000938322
0.00021489
0.000144501
0.0012282
0.00114141
0.00068077
0.000729824
0.000606271
0.000603247
0.0238795
0.0241
0.0050114
0.0220435
0.0529408
0.0546422
0.000643756
0.000691925
0.000560567
0.000566979
0.00011157
8.72428e-05
4.5289e-05
5.09915e-05
-4.27187e-05
-8.71455e-05
0.000395691
0.000415277
0.000452723
0.000431578
0.00123456
0.00145475
0.000612555
0.000583619
0.000688327
0.000731002
0.000777604
0.00083751
0.00107938
0.000464062
0.00056999
0.000712757
0.000705753
0.000168656
0.000337462
0.000347986
0.000347952
-9.47971e-05
-9.97809e-05
-2.01035e-07
-9.69715e-06
-9.04809e-05
-9.95263e-05
0.00038455
0.000408749
0.000586256
0.000598674
0.00096553
0.00108329
0.000920443
0.00131393
0.000723565
0.00070167
0.000889324
0.000849432
0.00091218
0.000628513
0.000592563
0.00081351
0.000873873
0.00147692
0.00123969
0.000563222
0.00053642
0.000679376
0.000810767
9.97319e-05
-1.89994e-05
0.000427573
0.000513691
0.000282384
0.000213286
0.000277696
0.000371749
0.000456904
0.000483482
0.000509031
7.48121e-06
1.51978e-06
0.000125175
0.000138457
4.00819e-05
-3.84187e-05
0.000346626
0.000320639
-1.68894e-05
-6.66185e-05
-9.6125e-05
-0.000102138
0.000250572
0.000229677
0.000703999
0.000721856
0.000809987
0.000790936
0.00106701
0.00117057
0.000852503
0.000897046
0.00051318
0.000464821
0.000375431
0.000323643
0.000452078
0.000405878
0.000461403
0.000503602
0.000602221
0.000559352
0.000662543
0.000697406
0.000727876
0.000762191
0.00048241
0.000427316
3.27827e-05
-1.16338e-05
0.000210577
0.000268522
0.000189242
0.000261723
0.000375657
0.000443022
3.84538e-05
0.000100702
-0.000104565
-8.97148e-05
5.18166e-05
2.28305e-05
7.59718e-05
-3.33817e-05
-2.61715e-05
-0.000105865
-9.7122e-05
-3.40375e-06
6.05268e-06
-2.67495e-05
-1.95756e-05
0.000388076
0.000402404
0.0115031
0.0102542
0.0112743
0.0112632
0.000197235
0.000147351
-0.000119478
-0.000120198
-0.000119445
-0.000119486
-2.12631e-05
-2.37565e-05
0.000425478
0.000423324
0.000756701
0.000852917
-5.14924e-05
-7.80551e-05
0.0005706
0.000566869
0.000331582
0.000327129
0.000119233
0.000118038
-0.000128814
-0.000129249
0.00083093
0.000830785
0.00113247
0.00111751
0.000905971
0.000916923
0.0146921
0.0149102
0.000966884
0.000978413
-0.000146242
-0.000147137
0.0154185
0.0148158
0.0126977
0.000640456
0.00069541
0.000557251
0.00052064
0.000601438
-2.85027e-05
-2.94935e-05
0.000726052
0.000763207
0.000696944
0.000669171
0.000497778
0.000467245
0.000575159
0.000544902
0.000840196
0.000862418
0.000831884
0.00083193
-0.000138273
-0.000139158
0.000512896
0.000519999
0.000219411
0.000146835
7.82086e-05
1.84347e-05
0.000752485
0.000685433
0.000102486
0.000106219
0.000451583
0.000442838
0.000533758
0.00053005
0.000600568
0.000598191
0.0014153
0.00140052
-0.00747027
0.00421283
-0.00241334
0.00422405
0.00408276
0.000614823
0.000639882
0.00068289
0.000710311
-2.80442e-05
-4.02498e-05
-6.83271e-05
0.000289369
0.000160251
5.24241e-05
0.000247913
0.000136247
-8.66503e-05
-5.23522e-05
0.000434105
0.000349965
0.000505388
0.00052557
0.000842015
0.000981965
0.000549812
0.000526523
0.000778317
0.000727707
0.00082981
0.000987686
0.000572641
0.000462903
0.000722901
0.000935732
-7.98435e-05
-8.41924e-05
0.000186628
0.000183739
-9.29018e-05
-9.96546e-05
-1.81042e-05
-2.56009e-05
0.000613521
0.000523218
0.000517861
0.000488925
0.000463339
0.000478852
0.000976076
0.000868034
0.00096719
0.00134168
0.00157728
0.00131009
0.000689478
0.000665144
0.000766237
0.000742853
0.00105548
0.00120888
0.000724273
0.000743369
0.000993737
0.000894828
0.000953908
0.000954787
0.000395076
0.000520593
0.000677993
0.000820965
0.000300818
0.000181339
-7.75339e-05
-2.79784e-05
0.00026783
0.000330419
0.000353562
-6.53109e-05
-6.66601e-05
-0.000102916
-8.61979e-05
0.000228208
0.000133136
-9.70275e-05
-0.000102951
0.000148037
6.91817e-05
0.000803133
0.000787554
0.000852065
0.000874133
0.00110294
0.001004
0.000840799
0.000808194
0.000913511
0.00041472
0.000362033
0.000273788
0.000324462
0.000539705
0.000496702
0.000582386
0.000624441
0.000715335
0.000676162
-4.13504e-05
-7.3928e-05
0.00017967
0.000235352
9.44728e-05
0.000151576
0.000135442
0.0002009
0.000284082
0.000210747
2.74395e-05
8.64919e-05
-7.20768e-05
-9.68368e-05
-8.10376e-05
-0.000103429
-9.70931e-05
-6.828e-05
8.08754e-05
0.000138632
-2.09284e-05
-0.000105949
-9.72934e-05
-4.54918e-05
-3.97947e-05
-6.00963e-05
-5.55295e-05
0.000775677
0.000696909
0.0115836
0.0103212
0.000420235
0.000910066
0.00066335
0.000838637
0.000279303
0.000276095
-0.00011932
-0.000119169
-0.00011037
-0.000110956
2.3721e-05
2.64109e-05
-0.000118369
-0.000125903
0.000969093
0.000773616
0.000765748
0.000861884
-5.51294e-05
-8.05774e-05
0.00052173
0.000527231
0.000799842
0.000896828
0.000346575
0.00035211
0.000386033
0.000381346
0.000216033
0.000212748
7.30229e-05
7.44441e-05
2.11732e-05
2.14168e-05
-0.000111552
-0.000111357
0.00035277
0.000433438
0.000958466
0.000810168
0.000750248
0.000741003
0.012464
0.0126669
0.000756832
0.000749027
0.000734859
0.000737983
-0.000137765
-0.000136759
-0.000151395
-0.000131842
0.000135484
0.000216196
0.000411322
0.000419613
0.000362149
0.000713135
0.000753659
0.000732658
0.000794852
0.000825034
0.000788389
-6.9289e-05
-6.99161e-05
0.000430409
0.000410017
0.00071013
0.000684174
0.000645114
0.000623469
0.000585227
0.000617243
0.0010704
0.00107572
0.000896037
0.00104231
6.88834e-05
8.09355e-05
-0.000126848
-0.000140041
0.00134672
0.00139196
7.66726e-05
2.24449e-05
0.000147506
0.000220782
7.73028e-05
2.10307e-05
0.000934399
0.000846409
0.00058704
0.000712753
3.46696e-05
4.43069e-05
0.000385625
0.000334188
0.000395066
0.000358933
0.000103196
0.000111947
0.00046011
0.000467403
0.000642926
0.00064545
0.000803257
0.00080441
0.0247708
0.0243639
0.000984501
0.00096537
-0.00113216
0.00122347
0.000550457
0.000537745
-7.59509e-05
-6.62453e-05
0.000148531
0.000266186
3.01e-05
3.77633e-05
-4.99889e-05
-8.66198e-05
0.000550074
0.000570654
0.000355883
0.000268294
0.00101746
0.000895278
0.000989868
0.000889122
0.000778145
0.000618809
0.000592559
0.000692864
0.000665516
0.00114127
0.000898455
0.000786399
0.000881358
0.000718829
0.000950451
0.000702837
-7.28929e-05
-7.34542e-05
0.000196916
0.000345949
0.000304869
0.000278234
-3.82637e-05
-7.13456e-05
-5.60328e-05
-5.07576e-05
0.000614852
0.000709387
0.000774811
0.000691374
0.000725156
0.000818685
0.00083935
0.000888922
0.000810757
0.000892647
0.000882806
0.000903946
0.000637548
0.000590641
0.000612545
0.000651179
0.00062311
0.00072798
0.000703612
0.000933762
0.00103757
0.000828641
0.000895015
0.00108135
0.000113777
-2.00752e-06
0.000532243
0.000400885
-8.00476e-05
-0.000104041
-1.17354e-05
-7.11115e-05
4.32375e-05
0.000134682
0.000583423
0.000609508
0.00037738
0.000402831
1.53204e-05
-5.1871e-05
-8.95738e-05
-0.000102398
-6.41059e-05
-1.0638e-05
0.00074582
0.000730558
0.000825144
0.000800666
0.000840935
0.000820678
0.0013166
0.00159126
0.000796646
0.000772393
0.000927694
0.000990655
0.000443939
0.000491457
0.000357385
0.000305942
0.000669506
0.00062972
-7.92303e-05
-5.46516e-05
6.10351e-05
0.000112106
0.000183119
0.000120534
0.000285431
0.000347106
-2.52606e-05
-6.55093e-05
1.78159e-05
7.37555e-05
-9.63392e-05
-6.95709e-05
-0.000103878
-8.43423e-05
-6.92738e-05
-9.66312e-05
9.09695e-05
0.000154445
-0.00010202
-8.75453e-05
-0.000105956
-9.71588e-05
-1.1811e-05
-5.06773e-05
0.000680521
0.00078281
0.000364253
0.000932459
0.000886949
0.000863006
0.000702507
0.000697997
0.00051527
0.000459027
0.000142632
0.000100657
-0.000118958
-0.000118705
-0.000120869
-0.000121494
-0.000119501
-0.000122076
1.26779e-05
9.75669e-06
-8.90548e-05
-9.00725e-05
0.000581466
0.000578701
0.000771874
0.000974329
0.000343643
0.000348355
-0.000117209
-0.000127497
-0.000116824
-0.000128164
-2.00632e-05
0.000911082
0.000909528
0.000906381
0.000901597
0.000704287
0.000285542
0.000289792
0.000446334
0.000441504
0.000322851
0.000265522
-0.000113776
-0.000128594
-0.000128386
-0.0001283
0.000244436
0.000241249
6.83558e-05
6.8e-05
-8.74908e-05
-8.75058e-05
0.000908483
0.000907992
0.000391184
0.00032215
-0.000178653
-0.000178833
0.000918048
0.00089191
0.000732373
0.000896433
0.0121318
0.0122436
0.00804951
0.00813695
0.000913037
0.000921072
0.000643818
0.00064572
0.000134342
0.000205644
-9.82376e-05
-5.75731e-05
-0.000132366
-0.000152585
-6.06405e-05
-0.000102079
3.86295e-05
0.000116912
0.00943233
0.0160991
0.000516093
0.000462759
0.000736325
0.000677697
0.000618144
0.000615748
0.000804465
0.000790406
0.000719974
0.00064207
0.000752009
2.09407e-05
-1.6653e-05
0.000232368
0.000217403
0.000758024
0.000780955
0.000723692
0.000640262
0.000665392
0.000654267
0.000685999
0.00112451
0.00086209
0.000817609
0.000870977
0.000931148
0.00119955
0.00115448
0.000559317
0.000508535
-0.00012551
-0.000124035
1.36017e-05
8.43124e-05
0.000233318
0.00023861
-0.000165129
-0.00015974
0.000691243
0.000732013
0.000148356
0.000222334
0.00092879
0.000828637
0.000720647
0.000593759
-3.97775e-05
-3.53362e-05
5.70098e-05
6.69141e-05
0.000335835
0.000387179
0.0151415
0.0150892
0.0112359
0.0162201
0.000785645
0.000832692
0.000475243
0.000483668
0.000562812
0.000560112
0.00081682
0.00081935
0.000784696
0.000782935
0.0243848
0.0245936
0.000229977
0.000385787
0.000474372
0.000453583
0.000618929
0.000679032
0.00024388
0.000224354
4.68139e-05
3.24728e-05
0.00012332
0.000229608
-4.76842e-05
-8.67712e-05
0.000593363
0.000514052
0.000375996
0.00028954
0.00074285
0.0007127
0.000750832
0.000646892
0.00068912
0.000664938
0.000572775
0.000659244
0.000631443
0.000745925
0.000730306
0.00070029
0.000696673
2.17942e-05
2.03594e-05
-4.84449e-05
-7.67031e-05
-6.81721e-05
-3.22826e-05
-1.89604e-05
-2.6435e-05
0.000315629
0.000352249
0.000668101
0.000641189
0.000787321
0.000825543
0.000749228
0.000747272
0.000715428
0.000758545
0.000772175
0.000823635
0.000754941
0.000787737
0.00100713
0.00121095
0.00132638
0.00113293
0.00124884
0.000609752
0.000539
0.00056908
0.000715309
0.000677255
0.000805898
0.00077619
0.000826354
0.000949367
0.000881755
0.00117169
0.000927935
0.000853122
0.000923156
0.000109087
-7.85734e-06
-8.98872e-05
-9.54744e-05
-9.89424e-05
-0.000104102
-7.20924e-05
-6.28229e-05
1.69465e-05
-4.82067e-06
-6.85982e-05
0.000166372
6.10376e-05
0.000527496
0.000556387
0.000235981
0.000215562
-4.57064e-05
2.69781e-05
0.000717062
0.000701221
0.000773518
0.000802934
0.000780119
0.000762157
0.000961454
0.000896565
0.0012155
0.00116225
0.00135421
0.00160165
0.00099258
0.0011298
0.00106993
0.000882634
0.000424305
0.000471084
-5.22675e-05
-7.86291e-05
0.000124201
7.1564e-05
0.000194556
0.000251386
0.000219855
0.000151649
0.000265145
0.000325995
-1.81283e-05
-6.15278e-05
-0.000104835
-9.17414e-05
-0.000104256
-8.72294e-05
0.000102536
0.000171058
-0.000101042
-8.50863e-05
-0.000117968
-0.000116003
0.000763939
0.0010125
0.000836917
0.000823612
0.00669302
0.0071397
0.00893361
0.00840787
0.00221783
0.00182427
0.000324918
0.000381596
0.000228576
0.000231479
0.000196389
0.000237743
7.50044e-05
7.1467e-05
-0.000113226
-0.000113714
-7.77568e-05
-7.94641e-05
-0.000119482
-0.000119424
-0.000111544
5.1064e-05
4.79708e-05
1.54976e-05
-0.000123574
-0.000123997
-0.000125368
-0.000125645
0.0111399
0.0112141
0.000279537
0.000280332
0.000341381
0.000280839
0.00968451
0.0103615
0.000560413
0.000501277
0.000334244
0.000329567
0.000147256
0.000198944
-0.000116959
-0.000127948
-0.000116285
-0.000128715
0.000645581
0.000653028
0.000799094
0.000694508
0.000562404
0.000501524
0.00039608
0.000402034
0.000269368
0.000273285
-0.000115943
-0.000128813
-0.000111864
-8.85308e-05
0.000179387
0.000181878
2.15484e-05
6.91703e-05
-0.000128324
-0.000128512
-8.77369e-05
-8.76157e-05
0.000456935
0.000458025
0.000686456
0.000679602
0.000333033
0.00040479
0.00046189
0.000154518
0.000155978
0.000338367
0.000334979
0.000835657
0.000836115
0.00236866
0.0026854
0.0113883
0.0111791
0.0117398
0.0115743
0.0144512
0.0143283
0.00206916
0.00800724
0.00114037
0.00113136
0.00116578
0.00118048
-0.000134672
-0.000134023
2.3026e-05
7.81021e-05
-0.000130888
-0.00014973
0.000198493
0.000198927
-5.91623e-05
-0.000101468
-0.000132144
-0.000152005
-0.00015479
-0.000127587
0.000487011
0.000373733
0.0156733
0.0150513
0.0007547
0.000808792
0.000670478
0.00064651
0.000617741
0.000669266
0.000634804
0.000741655
0.000696602
0.000775245
0.000844555
0.000596267
0.000471245
0.000452657
0.00017875
0.000251564
0.00024104
0.00012508
0.000390374
0.00030494
0.000701554
0.000728615
0.000493021
0.000454089
0.000630449
0.000603008
0.000698066
0.000684708
0.00064269
0.000804015
0.000751923
0.000794797
0.00104918
0.000774594
0.000720138
0.000770629
0.00764116
0.0104211
0.00011831
0.000131012
0.00043583
0.000432051
-0.00017933
-0.000195526
0.000774727
0.000766817
0.000347235
0.000354136
-0.000161776
-0.000160756
0.00217804
0.00666154
0.000738235
0.00068819
7.71595e-05
2.1374e-05
7.80526e-05
1.95497e-05
0.000646175
0.000801119
0.000584652
0.000606834
0.000616004
0.000745686
-0.000141532
-0.000142147
-4.29623e-06
3.63858e-06
7.76612e-05
8.8941e-05
0.000227438
0.00022263
4.75142e-05
4.7445e-05
0.0134962
0.014406
0.0155288
0.000829222
0.000783009
0.00012123
0.000114111
0.000552677
0.000547245
0.000526669
0.000523567
0.000727386
0.000727107
0.0227873
0.023086
0.000727445
0.000721234
0.000911415
0.000899526
-0.000172271
0.000539716
0.00160534
0.00197849
0.000395281
0.000370854
0.000590263
0.000662077
0.000133454
0.00025897
9.56929e-06
-6.10478e-06
0.000110369
0.000211318
-3.91373e-05
-8.61568e-05
0.000494349
0.000473987
0.00131473
0.00155029
0.000812582
0.000639961
0.00057645
0.000465027
-7.41686e-05
-4.3641e-05
-3.91198e-05
0.000457496
0.000422375
0.000788649
0.000741171
0.000993753
0.00117412
0.00122189
0.000692311
0.000640095
0.000692458
0.00085183
0.00113899
0.00118625
0.00144786
0.00149517
0.0016622
0.000633807
0.000561778
0.000742598
0.000773849
0.000794251
0.00075557
0.00085723
0.000783789
0.000761812
0.001085
0.000818624
0.000371254
0.000253876
0.000325761
0.000625265
0.000734566
-0.000102185
-8.59146e-05
-4.55069e-05
6.15639e-05
-0.000103545
-6.79443e-05
4.03937e-06
-6.99207e-05
0.000197147
8.6173e-05
-1.91687e-05
-7.40592e-05
0.000458733
0.000434044
0.000729827
0.000710039
0.000654028
0.000636602
0.000685975
0.00071605
0.000744914
0.00083219
0.000859023
0.000938218
0.000991188
0.0019834
0.00178145
0.00105584
0.00078228
0.000818588
0.000953002
6.21129e-05
9.23233e-06
-4.8924e-05
-7.73794e-05
0.000166074
0.000220597
0.000240205
0.000169584
-0.000105055
-9.33154e-05
2.69895e-05
-2.64268e-05
0.000740826
0.000744408
-0.000111265
-0.000104076
0.000246289
0.000240826
-9.57409e-05
-9.49155e-05
0.000666334
0.000670844
0.0111423
0.00795801
0.005173
0.00571307
0.000567732
0.000488379
0.00792113
0.000892974
0.000889091
0.000371863
0.000315703
0.000433191
0.000438343
0.000661374
0.000655653
0.000326013
0.000323139
0.000104232
0.000147087
-7.37821e-05
-5.32881e-05
-0.000118691
-0.000118363
-0.000114123
-9.86865e-05
-8.12798e-05
-0.000112125
-0.000112692
9.19832e-05
8.87113e-05
-4.8297e-05
-1.88522e-05
-6.30069e-05
-6.44015e-05
-0.00011855
-0.000118726
0.000410235
0.000421596
0.000350478
0.000349703
0.000535907
0.00053784
0.000403849
0.000767305
0.000991987
0.00067506
0.00068187
0.000237912
0.000292721
0.000396439
0.000454018
-0.000117354
-0.000127275
4.94887e-05
1.02231e-05
-0.000100291
-0.000100773
-0.000116508
-0.000128559
-9.86557e-05
0.000910287
0.000910875
0.000817187
0.000829395
0.000506253
0.000510866
0.000481666
0.00047201
0.00039097
0.000451344
2.4262e-05
2.20811e-05
-0.000114731
-0.000128763
-9.33128e-05
0.0001262
0.00012818
0.000174698
0.000172573
0.000120699
-0.000111323
-0.000111439
-1.73428e-05
-1.78879e-05
-8.75291e-05
0.000816195
0.000922202
0.000783125
0.000775076
0.00054028
0.000610517
0.00047745
0.000468884
0.00102265
0.00102916
0.00729102
0.012745
0.000947098
0.00097142
0.00102018
0.00117242
0.00118586
0.000881955
0.000879197
0.000723476
0.00071437
0.0109972
0.00408841
0.0140316
0.0139789
0.00795706
0.00791476
0.0145835
0.0123639
0.000896003
0.000898187
0.00119226
0.00118182
0.000487106
0.00049046
1.80743e-05
1.82076e-05
0.000206217
0.000206066
-6.98858e-05
-2.78925e-05
-0.000122291
-9.7043e-05
-3.7613e-05
-3.45093e-05
-5.9151e-05
-9.99381e-05
-1.02656e-05
5.05021e-05
0.000968965
0.000959446
-0.000132464
-0.000153122
0.000132693
0.0002138
-8.63379e-05
-3.18614e-05
-0.000184349
-0.000159191
0.0134758
0.00541656
0.00948756
0.000373793
0.000365705
3.04135e-06
-2.6624e-06
0.000558575
0.000525101
0.000537688
0.000604033
0.000836834
0.000969306
0.000605606
0.000856268
0.000792281
0.000772746
-6.19509e-05
-6.32907e-05
-9.16814e-06
3.17771e-05
0.000104364
9.48173e-05
-2.80182e-05
-6.20284e-05
0.000112273
9.24303e-05
0.000443906
0.000350124
0.000778363
0.000933656
0.000571842
0.00054522
0.0004792
0.000443349
0.000731524
0.000694254
0.000662326
0.000619744
0.000653868
0.000600718
0.000667163
0.000685835
0.0008049
0.000722474
0.000822327
-3.37168e-05
-1.37876e-06
-7.98257e-05
0.000856587
0.000651928
0.000619857
-0.000136486
-0.000137385
0.000284786
0.000229738
0.000117426
0.000192574
0.000776798
0.000761005
-4.16022e-05
-4.06899e-05
0.000643308
0.000636619
0.000470905
0.000479479
0.000116013
0.000118127
-0.000166099
-0.000167077
0.00027575
0.00020394
0.00074434
0.000685395
0.000546643
0.00065165
7.69327e-05
2.1659e-05
0.000307208
0.000390602
7.81077e-05
1.87877e-05
7.40645e-05
5.5488e-06
0.000559419
0.000573571
0.0112952
0.0112093
0.000737451
0.000722718
0.000750969
0.00070994
0.000785915
0.000835331
-0.000204897
-0.000206982
-1.86508e-05
-1.18665e-05
0.000111298
9.99713e-05
0.00018118
0.000186094
8.21483e-05
8.21693e-05
0.000478797
0.000442677
0.000587788
0.000634575
0.000728434
0.00068059
-6.27611e-05
-6.36491e-05
0.000611777
0.000625007
0.000491565
0.000488199
0.000565847
0.000569188
0.00077801
0.000778562
0.0233765
0.0236152
0.000798036
0.000802582
0.000741661
0.000738744
0.000944257
0.000926569
0.000896383
0.00124445
0.000450779
0.000438005
0.000455846
0.000377046
0.000427067
0.000561927
0.000536394
0.00014913
0.00027104
2.27672e-05
0.00110282
0.000470074
0.000492776
-7.69639e-05
-9.60891e-05
-8.34817e-05
0.000554909
0.000646285
0.000490682
0.000517618
0.000772415
0.000893493
0.00117651
0.000781625
0.00101686
0.00165871
0.00199956
0.000902466
0.000993388
0.00146304
0.000522015
0.000499775
0.000829936
0.000874635
0.00079971
0.000763704
0.000865658
0.000878553
0.00110324
0.00095391
0.000945951
0.000372519
0.000252409
0.000604265
0.000709219
-0.0001033
-8.33096e-05
5.26507e-05
-4.55385e-05
-1.96597e-05
-8.18502e-05
-0.000104329
-7.63185e-05
7.35778e-05
0.000179002
0.000733615
0.000751099
0.000619839
0.000654025
0.000758964
0.000774145
0.000855698
0.00089381
0.00146205
0.00122762
0.000750475
1.54088e-06
5.15216e-05
-3.66925e-05
-7.15969e-05
0.000137426
8.27936e-05
-9.62391e-05
-6.82192e-05
0.000709492
0.000715069
-6.62077e-05
-4.22268e-05
-0.000111223
-0.000114268
0.000169631
0.000224087
0.00082948
0.000867288
0.000128932
0.000127043
0.00106793
0.0010599
0.000307813
0.000309833
0.000803555
0.000807768
0.000280596
0.000974279
0.00661339
0.00622059
0.0112459
0.00621651
0.00746095
0.00702849
0.000790153
0.000833284
0.000367047
0.000311139
0.000376702
0.000320293
0.000693371
0.000686442
0.000422424
0.000419266
0.000373746
0.000370848
0.000190243
0.000185882
-1.11644e-05
-4.95457e-06
6.32155e-05
2.74229e-05
-0.000104533
-9.08905e-05
-0.000116975
-0.000117874
-9.75156e-05
-9.63875e-05
5.40965e-05
9.52492e-05
-9.42181e-05
-9.52887e-05
-8.70467e-05
-8.60636e-05
-0.000106209
-0.000106812
0.00698733
0.00716955
0.00121041
0.00121523
0.000421954
0.000421179
0.000342053
0.000280625
0.000342397
0.000283005
0.000985763
0.000768704
0.000437682
0.000428436
0.000704913
0.000792589
0.000288403
0.000233866
0.000443526
0.000386515
3.69736e-05
-4.68906e-07
0.000150279
0.000202456
1.42112e-05
5.41725e-05
-7.88966e-05
-5.26963e-05
-0.00010125
-0.000117079
-7.61656e-05
-4.88889e-05
-0.000116686
-0.000128372
0.000429315
0.000422914
0.000861285
0.000870439
0.00071222
0.000723202
0.00087808
0.000783087
0.000277248
0.00028136
0.000408817
0.000416086
0.000228795
0.000225732
6.53843e-05
6.31192e-05
-0.000115414
-0.000128818
2.40981e-05
2.50396e-05
0.00023498
0.00023188
-1.89603e-05
-1.93788e-05
-8.76327e-05
-8.78911e-05
-1.84402e-05
-5.73958e-05
0.000553178
0.000554928
0.000801945
0.000801499
0.000693382
0.000790543
0.000559556
0.000624907
0.000397456
0.000327304
8.28025e-05
8.36402e-05
0.00010433
0.000105822
-0.000155933
-0.000105786
0.000565183
0.000558042
0.000973818
0.000820894
0.00113043
0.00115375
0.013642
0.0135144
0.000703954
0.000688929
0.0040213
0.00396322
0.00417007
0.00426817
0.00101899
0.0010365
0.00206168
0.00205605
0.00111309
0.00110315
0.000946695
0.000939242
0.000637668
0.000644818
0.000357818
0.000361258
0.000236308
0.000300441
6.61076e-05
6.56476e-05
0.000135253
0.000135824
2.13473e-05
7.68153e-05
-0.000147518
-0.000147939
-7.72096e-05
-7.36549e-05
-6.01983e-05
-0.000100929
5.15881e-05
5.25953e-05
-1.00546e-05
-1.02668e-05
0.000120791
0.000199541
-0.000101882
-6.00766e-05
8.53877e-06
6.78511e-05
-3.26756e-05
-8.65066e-05
3.73344e-05
3.76457e-05
0.000676976
0.00182743
0.00119307
0.00105133
0.00555352
0.000358273
0.000392243
0.00112233
0.00121779
0.00029686
0.000275819
0.000893735
0.000989877
0.000434149
0.00047538
0.000591244
0.000570548
0.000589452
0.000615401
0.000615215
0.000567836
0.000734813
0.000678246
0.00081352
0.000842218
0.000673875
0.000661059
0.000121162
7.71876e-05
0.000382015
0.000329762
9.35273e-05
8.00396e-05
-5.66582e-05
-5.57343e-05
-6.22898e-05
-4.80151e-05
0.000249079
0.00013587
2.44858e-05
7.98612e-06
0.000581819
0.00070132
0.000344334
0.000458287
0.000781869
0.000930129
0.000509582
0.000523008
0.000496367
0.00043307
0.000655918
0.000625517
0.000610572
0.000569192
0.000553049
0.00057252
0.000603885
0.000636671
0.00090664
0.000916733
0.00102419
0.00106009
0.00122318
0.000865374
0.0010268
-9.6958e-05
-0.000127845
0.000825548
0.000840634
0.000599192
0.000614379
5.57411e-05
0.000106245
-0.000102262
-9.98428e-05
-0.000130412
-0.000142725
0.00492875
0.00569578
8.06581e-05
0.000127816
0.000772583
0.000768043
-0.000155136
-0.000154339