/*--------------------------------*- C++ -*----------------------------------*\
  =========                 |
  \\      /  F ield         | OpenFOAM: The Open Source CFD Toolbox
   \\    /   O peration     | Website:  https://openfoam.org
    \\  /    A nd           | Version:  7
     \\/     M anipulation  |
\*---------------------------------------------------------------------------*/
FoamFile
{
    version     2.0;
    format      ascii;
    class       volScalarField;
    location    "480";
    object      T;
}
// * * * * * * * * * * * * * * * * * * * * * * * * * * * * * * * * * * * * * //

dimensions      [0 0 0 1 0 0 0];

internalField   nonuniform List<scalar> 
238806
(
0.856047
0.855388
0.833506
0.833507
0.835872
0.85005
0.850316
0.856357
0.857362
0.83164
0.830502
0.840345
0.805234
0.803728
0.800557
0.805383
0.829527
0.827604
0.865345
0.865708
0.814463
0.811741
0.805096
0.803987
0.801201
0.831928
0.829646
0.829339
0.82492
0.825181
0.864887
0.865454
0.81581
0.819633
0.824932
0.828039
0.0928577
0.0922657
0.83338
0.835465
0.832948
0.828878
0.861217
0.861741
0.864923
0.864649
0.797809
0.802896
0.823342
0.826847
0.842065
0.843052
0.808746
0.807216
0.261658
0.262564
0.833111
0.834409
0.834808
0.83855
0.836642
0.836971
0.83631
0.835954
0.838077
0.864303
0.864196
0.858637
0.857731
0.850837
0.849211
0.815134
0.811202
0.824605
0.821157
0.83618
0.834577
0.824778
0.827865
0.506816
0.507433
0.82871
0.832226
0.854855
0.855464
0.843103
0.841246
0.823238
0.82494
0.827047
0.825247
0.841321
0.838586
0.859551
0.859268
0.835936
0.838073
0.83605
0.833133
0.830364
0.863919
0.859056
0.858318
0.857433
0.857698
0.786307
0.782798
0.819773
0.816373
0.817459
0.813548
0.835124
0.837204
0.840773
0.839825
0.806434
0.809958
0.0892717
0.0894259
0.0888521
0.802844
0.797862
0.853199
0.852474
0.851353
0.851576
0.795541
0.794999
0.819338
0.820593
0.837282
0.82429
0.822987
0.824956
0.839798
0.842578
0.859203
0.859935
0.809672
0.807227
0.808091
0.81042
0.838915
0.861134
0.859204
0.861077
0.860427
0.857243
0.857962
0.853171
0.852094
0.846369
0.845197
0.788299
0.784187
0.811653
0.808331
0.812698
0.808763
0.811376
0.80868
0.83367
0.832114
0.843101
0.842254
0.824179
0.827318
0.540206
0.539623
0.0931073
0.0925146
0.82606
0.829412
0.711745
0.710545
0.710697
0.854323
0.853627
0.839098
0.838109
0.789622
0.789496
0.820809
0.825608
0.82747
0.827013
0.854868
0.854784
0.860076
0.86086
0.861096
0.861644
0.854584
0.853787
0.835102
0.836443
0.837683
0.82064
0.821106
0.835059
0.833734
0.864696
0.865019
0.860676
0.860068
0.859631
0.85865
0.846141
0.844054
0.850568
0.851664
0.747999
0.749402
0.777082
0.772765
0.79508
0.799454
0.807866
0.811907
0.818823
0.822242
0.835071
0.832944
0.838921
0.840803
0.840036
0.84083
0.824737
0.827862
0.625733
0.631465
0.392776
0.398963
0.400186
0.406535
0.209975
0.204887
0.854394
0.856349
0.845861
0.849805
0.786931
0.781948
0.685105
0.681592
0.851986
0.851295
0.842087
0.843006
0.83879
0.836758
0.827489
0.825398
0.806644
0.807949
0.831159
0.833601
0.858785
0.860526
0.859561
0.86066
0.859876
0.860509
0.828658
0.828903
0.852852
0.853899
0.834633
0.833712
0.814007
0.810034
0.841022
0.818993
0.845254
0.845782
0.847257
0.864309
0.863918
0.86278
0.862171
0.85944
0.860113
0.854449
0.855393
0.854939
0.855039
0.851461
0.850875
0.773486
0.770963
0.788112
0.790616
0.774185
0.76997
0.785322
0.780703
0.80458
0.800152
0.809431
0.805065
0.810141
0.806221
0.805938
0.804305
0.828153
0.825379
0.835808
0.834902
0.838559
0.836864
0.80733
0.807916
0.82096
0.821524
0.820264
0.817139
0.55014
0.555652
0.596847
0.602732
0.524198
0.518095
0.501285
0.500695
0.370934
0.371513
0.204778
0.209895
0.0883918
0.823418
0.826589
0.79748
0.802228
0.276585
0.270526
0.774207
0.777698
0.709398
0.707263
0.850779
0.849885
0.852515
0.852681
0.840121
0.84109
0.835043
0.83306
0.816334
0.817159
0.815158
0.814219
0.849683
0.851585
0.855867
0.859945
0.858255
0.856887
0.856435
0.860641
0.860036
0.833439
0.833696
0.846161
0.848007
0.851027
0.853016
0.827546
0.825559
0.803334
0.847708
0.845777
0.829007
0.832429
0.838018
0.839478
0.840238
0.837718
0.857069
0.855978
0.863822
0.86434
0.862798
0.86261
0.862384
0.861557
0.861419
0.860292
0.835151
0.83732
0.842039
0.844099
0.856345
0.855996
0.857285
0.856716
0.851856
0.85179
0.850021
0.848905
0.843712
0.841718
0.753751
0.752195
0.792941
0.796051
0.771207
0.767095
0.78265
0.778126
0.792999
0.788164
0.800432
0.795533
0.807487
0.803594
0.807761
0.809272
0.825661
0.822881
0.837435
0.83836
0.828037
0.830713
0.818319
0.821592
0.817665
0.81823
0.823285
0.577674
0.582836
0.625617
0.631324
0.584725
0.578769
0.566299
0.572465
0.398882
0.392655
0.417865
0.423255
0.383498
0.377509
0.134166
0.134397
0.351804
0.357546
0.841816
0.843723
0.841152
0.793458
0.791514
0.793213
0.790738
0.791851
0.793848
0.267547
0.268459
0.730689
0.727222
0.714594
0.712578
0.709138
0.708976
0.772276
0.772813
0.852518
0.853437
0.850329
0.849777
0.845389
0.845671
0.84084
0.829844
0.829768
0.827907
0.813423
0.808525
0.809804
0.810472
0.855133
0.859149
0.858175
0.858716
0.858231
0.858753
0.858383
0.860866
0.86145
0.823456
0.823696
0.832866
0.830537
0.837787
0.835667
0.853146
0.851879
0.832172
0.834721
0.822941
0.824773
0.823063
0.805763
0.816329
0.817107
0.815111
0.813988
0.822866
0.837498
0.853269
0.854458
0.860878
0.86054
0.863549
0.863128
0.862289
0.863075
0.864249
0.863721
0.861371
0.861966
0.839335
0.837282
0.847864
0.845781
0.852183
0.853869
0.853425
0.853508
0.855905
0.854803
0.848145
0.848174
0.849128
0.849715
0.84321
0.84438
0.741012
0.742958
0.769357
0.77447
0.802452
0.805701
0.786016
0.78959
0.778285
0.782239
0.78702
0.791207
0.779906
0.775486
0.790491
0.785706
0.797948
0.793089
0.811118
0.814471
0.804736
0.800882
0.817055
0.817855
0.81378
0.815881
0.82304
0.820267
0.830086
0.832797
0.827349
0.826502
0.841379
0.84168
0.833123
0.831194
0.828755
0.826182
0.821732
0.818446
0.813922
0.810613
0.497884
0.49222
0.55565
0.550148
0.59689
0.602798
0.53398
0.53341
0.517898
0.524026
0.481551
0.475712
0.40795
0.407312
0.419801
0.419934
0.37694
0.382953
0.122624
0.119267
0.0919857
0.0913852
0.277957
0.278351
0.199149
0.199295
0.830319
0.826769
0.85629
0.854576
0.7842
0.782008
0.822344
0.818368
0.818021
0.822625
0.795773
0.800424
0.289831
0.29073
0.110203
0.109489
0.664821
0.663559
0.693917
0.690534
0.691695
0.694315
0.707784
0.706174
0.707317
0.710798
0.84901
0.847438
0.852756
0.854149
0.855026
0.855951
0.84955
0.850905
0.847056
0.847341
0.839402
0.841335
0.834898
0.832797
0.783651
0.783864
0.821482
0.819218
0.819686
0.814663
0.809035
0.844946
0.844365
0.855898
0.855288
0.859706
0.857764
0.858164
0.857603
0.860503
0.861113
0.820704
0.820942
0.836315
0.834209
0.831104
0.831353
0.850592
0.851732
0.8542
0.855476
0.82402
0.821679
0.821038
0.832238
0.831446
0.82977
0.842105
0.84257
0.845452
0.8438
0.84173
0.830094
0.826546
0.81005
0.842265
0.855735
0.854667
0.863513
0.862924
0.863402
0.863579
0.863056
0.861948
0.841189
0.840342
0.839211
0.841869
0.83986
0.851611
0.853081
0.854503
0.852901
0.855496
0.857191
0.85544
0.856006
0.853144
0.852685
0.845245
0.845828
0.850035
0.850082
0.847513
0.845643
0.766384
0.768772
0.754845
0.752906
0.751783
0.752737
0.77258
0.774904
0.798077
0.801884
0.799371
0.802576
0.789156
0.792793
0.779092
0.775218
0.789775
0.794034
0.787939
0.783228
0.795492
0.79063
0.813799
0.817178
0.811136
0.812611
0.808185
0.805518
0.830272
0.828123
0.830534
0.827778
0.831023
0.829491
0.836651
0.836392
0.833329
0.835066
0.834491
0.829511
0.832693
0.815092
0.814983
0.821938
0.825027
0.812168
0.815509
0.776136
0.779502
0.49773
0.497582
0.539263
0.533655
0.544375
0.545144
0.61392
0.608156
0.578844
0.584826
0.565993
0.572185
0.398748
0.392477
0.455101
0.454691
0.461818
0.462163
0.427775
0.433312
0.429518
0.435159
0.397421
0.403223
0.395516
0.389493
0.23345
0.238706
0.130863
0.134656
0.11297
0.110022
0.0923976
0.0918031
0.0912897
0.0906728
0.272304
0.272099
0.0893288
0.0900727
0.0894098
0.823053
0.824366
0.855117
0.852156
0.853636
0.858092
0.856297
0.861201
0.863953
0.792657
0.790774
0.813055
0.815695
0.816185
0.819938
0.837688
0.835875
0.834386
0.836206
0.731695
0.723536
0.224934
0.219866
0.271686
0.272584
0.227653
0.228516
0.149394
0.14966
0.704088
0.708604
0.73745
0.734099
0.698575
0.695038
0.687057
0.683477
0.700072
0.697558
0.709305
0.709395
0.708058
0.712526
0.710948
0.840996
0.842986
0.851657
0.849728
0.853497
0.854781
0.853245
0.850746
0.851516
0.852078
0.846309
0.847316
0.840089
0.839753
0.843258
0.844906
0.830232
0.832432
0.788957
0.78984
0.824764
0.822549
0.817247
0.822652
0.843368
0.842274
0.856409
0.857008
0.855357
0.855019
0.857733
0.856851
0.860275
0.859588
0.826107
0.82635
0.83199
0.829663
0.842769
0.845003
0.85066
0.849443
0.854829
0.855757
0.828944
0.831142
0.830124
0.803078
0.799978
0.804622
0.823342
0.821552
0.816217
0.814079
0.813004
0.808554
0.842948
0.844703
0.831465
0.834441
0.862153
0.863117
0.861851
0.861298
0.862749
0.862064
0.863006
0.863559
0.845866
0.845245
0.843616
0.849779
0.851508
0.854895
0.853337
0.857774
0.857635
0.853669
0.854635
0.846131
0.84615
0.847114
0.848265
0.74679
0.744745
0.744773
0.746455
0.757553
0.756469
0.780371
0.77795
0.792991
0.805441
0.808729
0.79265
0.789597
0.781274
0.785308
0.796787
0.792466
0.802614
0.807033
0.820298
0.821113
0.801514
0.798911
0.812659
0.81057
0.822005
0.819876
0.830602
0.832745
0.828237
0.826723
0.83038
0.830894
0.843689
0.843987
0.843977
0.843676
0.836796
0.835356
0.83552
0.811677
0.811602
0.823256
0.826402
0.813395
0.816758
0.492541
0.492369
0.492079
0.491939
0.527768
0.527728
0.544624
0.544606
0.616115
0.621353
0.60834
0.614118
0.578873
0.584883
0.54072
0.534491
0.530156
0.530301
0.475643
0.475657
0.449198
0.448789
0.480073
0.480449
0.371736
0.365853
0.419673
0.419111
0.412757
0.40712
0.434731
0.440409
0.43035
0.43602
0.374302
0.368309
0.398774
0.40478
0.388981
0.395045
0.329422
0.329043
0.130588
0.130342
0.109793
0.112751
0.0926213
0.0920286
0.103048
0.105965
0.207633
0.202836
0.271975
0.277723
0.19885
0.199
0.171111
0.171321
0.847381
0.848949
0.848948
0.829029
0.825242
0.847419
0.844568
0.848702
0.850588
0.687024
0.680519
0.854439
0.852478
0.779599
0.7773
0.788805
0.786739
0.82474
0.820508
0.828292
0.826285
0.827301
0.828975
0.754366
0.760163
0.714644
0.715359
0.13489
0.132078
0.29778
0.298693
0.266643
0.265747
0.273491
0.274409
0.127783
0.128004
0.171843
0.172572
0.778579
0.782117
0.615395
0.616367
0.669719
0.671946
0.767441
0.771196
0.724149
0.727535
0.688511
0.69182
0.702166
0.699577
0.70183
0.704331
0.710429
0.708184
0.70657
0.77106
0.851625
0.85026
0.856401
0.855081
0.848836
0.847973
0.846509
0.848088
0.841726
0.842043
0.835099
0.836574
0.834529
0.837009
0.784092
0.78432
0.780465
0.79621
0.794346
0.831786
0.829579
0.812753
0.811054
0.84766
0.847873
0.848288
0.846763
0.853781
0.853266
0.856881
0.859289
0.85834
0.857094
0.856373
0.829806
0.827657
0.824687
0.825551
0.835087
0.837196
0.849403
0.847924
0.84142
0.841217
0.843136
0.834131
0.835577
0.826668
0.829528
0.815763
0.819313
0.817915
0.830627
0.833087
0.830161
0.826876
0.825165
0.819762
0.817844
0.811247
0.80698
0.83984
0.85617
0.855682
0.860742
0.860976
0.861975
0.862601
0.862026
0.862014
0.849325
0.84985
0.844284
0.843195
0.849847
0.85155
0.853156
0.854365
0.852507
0.853093
0.856345
0.856462
0.847832
0.847243
0.755105
0.752817
0.763318
0.761388
0.750515
0.748713
0.75348
0.754231
0.785587
0.783144
0.785775
0.788353
0.798943
0.795189
0.796199
0.799359
0.797634
0.802048
0.807844
0.807208
0.802407
0.800331
0.816886
0.819002
0.820298
0.817537
0.829432
0.830299
0.825323
0.823823
0.833816
0.833381
0.841689
0.841393
0.83892
0.839233
0.838939
0.837496
0.811427
0.810854
0.808197
0.808174
0.818763
0.820042
0.498048
0.498239
0.52207
0.522025
0.533394
0.539022
0.577725
0.583348
0.550656
0.551658
0.624816
0.625896
0.619868
0.619658
0.60236
0.596523
0.590771
0.590645
0.565583
0.571792
0.535898
0.54207
0.39774
0.391827
0.48149
0.481473
0.487935
0.481873
0.487245
0.487534
0.468896
0.4692
0.461449
0.394439
0.400607
0.406827
0.413012
0.420446
0.413084
0.407434
0.434294
0.439953
0.440853
0.441295
0.426166
0.426348
0.420144
0.413931
0.378895
0.384768
0.398059
0.403931
0.388462
0.394548
0.335229
0.341033
0.360385
0.360666
0.127263
0.123613
0.137577
0.133639
0.115836
0.116051
0.0969521
0.0951522
0.0921859
0.0915887
0.098383
0.0962287
0.207779
0.20301
0.285768
0.285879
0.236894
0.236676
0.188786
0.188607
0.194204
0.19403
0.141515
0.141514
0.0902629
0.0902591
0.844312
0.84671
0.834204
0.832634
0.848633
0.846777
0.840717
0.838247
0.851911
0.849968
0.849813
0.811181
0.812683
0.866489
0.867782
0.784215
0.780268
0.78194
0.795348
0.797216
0.816179
0.811827
0.840054
0.839394
0.841595
0.841537
0.832095
0.832543
0.822772
0.724423
0.72716
0.722762
0.730875
0.218813
0.219559
0.122646
0.121817
0.247041
0.246381
0.283881
0.284678
0.260757
0.259865
0.130887
0.131263
0.168165
0.167449
0.756943
0.761135
0.769232
0.772911
0.621478
0.620554
0.631357
0.635723
0.649732
0.650204
0.662523
0.661724
0.730866
0.734143
0.689172
0.685521
0.67931
0.676044
0.70371
0.701066
0.696872
0.699368
0.711512
0.71339
0.846293
0.844964
0.847627
0.84618
0.854917
0.856183
0.853158
0.854137
0.845685
0.844575
0.84361
0.843906
0.839334
0.841358
0.837193
0.839227
0.802361
0.802276
0.79895
0.826541
0.826262
0.829447
0.827467
0.817444
0.815333
0.846278
0.844796
0.85581
0.854628
0.857795
0.859159
0.819312
0.820159
0.828096
0.827227
0.855525
0.856304
0.848291
0.849549
0.852301
0.850638
0.822115
0.818695
0.81959
0.831216
0.829521
0.836434
0.83789
0.825965
0.82661
0.828846
0.834513
0.81393
0.814324
0.747523
0.7484
0.835154
0.837547
0.828696
0.824885
0.828076
0.812888
0.810246
0.809121
0.81725
0.815494
0.858848
0.858433
0.859045
0.85765
0.861684
0.861914
0.86484
0.865858
0.864601
0.860097
0.860105
0.861878
0.861559
0.851168
0.851653
0.844684
0.846298
0.846127
0.848018
0.85283
0.851123
0.854598
0.854014
0.759477
0.757057
0.742579
0.738941
0.759384
0.757293
0.76904
0.767035
0.767288
0.762838
0.763205
0.764763
0.781043
0.779577
0.784011
0.783066
0.795911
0.792215
0.810448
0.811198
0.803858
0.80594
0.8049
0.802262
0.822752
0.824893
0.817436
0.814693
0.832235
0.833122
0.833917
0.833684
0.83925
0.838965
0.841105
0.839632
0.814863
0.814295
0.637077
0.63681
0.51632
0.516288
0.512534
0.506749
0.539457
0.533855
0.555699
0.550216
0.583544
0.577702
0.512276
0.511597
0.579917
0.573876
0.612737
0.612118
0.595902
0.602488
0.608466
0.614241
0.578767
0.584848
0.596672
0.602527
0.590854
0.565045
0.571258
0.559377
0.572778
0.566758
0.542492
0.536399
0.368884
0.362969
0.380596
0.386653
0.435417
0.435487
0.470222
0.470429
0.503643
0.504265
0.500094
0.506184
0.459759
0.459296
0.475003
0.475309
0.450631
0.450897
0.38905
0.383066
0.413573
0.414361
0.438977
0.43948
0.423577
0.418066
0.435587
0.429925
0.444549
0.44479
0.413657
0.413417
0.385201
0.379312
0.392771
0.392147
0.407735
0.401596
0.370382
0.376397
0.269122
0.263501
0.353696
0.359507
0.348438
0.348223
0.360161
0.216648
0.211665
0.108697
0.111904
0.131483
0.135261
0.10939
0.11231
0.109437
0.1124
0.103892
0.106593
0.0949376
0.0967463
0.0930666
0.0932608
0.0959403
0.0981231
0.0914489
0.0908364
0.351798
0.357573
0.238866
0.238689
0.214789
0.214656
0.225582
0.220329
0.184233
0.183992
0.193862
0.193699
0.150031
0.150186
0.109257
0.109255
0.088776
0.0884028
0.768449
0.769664
0.828439
0.831639
0.829328
0.83739
0.835736
0.840001
0.838692
0.838004
0.844819
0.855227
0.783622
0.780537
0.834544
0.832194
0.865249
0.865544
0.850375
0.852337
0.786279
0.788229
0.820723
0.823501
0.807988
0.81219
0.840109
0.838263
0.841229
0.83666
0.837867
0.83857
0.835922
0.810221
0.813602
0.813704
0.679859
0.679376
0.75025
0.755902
0.617482
0.623906
0.311185
0.311064
0.173024
0.177686
0.123133
0.122303
0.235835
0.241081
0.332261
0.331614
0.278582
0.277789
0.27949
0.28041
0.244357
0.245244
0.214668
0.215473
0.110846
0.110117
0.154957
0.155657
0.107269
0.105032
0.780436
0.783961
0.776501
0.78003
0.668506
0.663883
0.651363
0.646011
0.64614
0.643791
0.646988
0.665497
0.666363
0.753459
0.749433
0.711972
0.708725
0.691414
0.687696
0.681764
0.678381
0.680453
0.683386
0.718102
0.715611
0.700948
0.698403
0.704368
0.701985
0.767696
0.767816
0.847613
0.846589
0.846325
0.844573
0.853988
0.853726
0.855169
0.856172
0.843944
0.842765
0.848611
0.848876
0.839212
0.837322
0.777639
0.778224
0.802422
0.824573
0.857374
0.857889
0.822904
0.822047
0.857124
0.848234
0.846781
0.851438
0.849015
0.83627
0.837796
0.835489
0.838025
0.839248
0.839094
0.822693
0.817976
0.81829
0.798195
0.781819
0.782526
0.837135
0.839722
0.826561
0.828276
0.817769
0.821403
0.804744
0.854859
0.852799
0.851207
0.857256
0.857329
0.857909
0.857615
0.859187
0.858018
0.863618
0.863634
0.865026
0.864593
0.858975
0.858929
0.860616
0.860944
0.849259
0.850379
0.847301
0.847902
0.849907
0.848126
0.778361
0.775949
0.76836
0.765681
0.75454
0.750425
0.746422
0.756682
0.758419
0.755175
0.75066
0.755026
0.759694
0.771786
0.775649
0.770446
0.777822
0.820805
0.82229
0.813757
0.814541
0.798015
0.795458
0.825503
0.827651
0.831039
0.830838
0.83774
0.838401
0.618224
0.613656
0.687978
0.687414
0.424876
0.430731
0.58949
0.595314
0.582927
0.577659
0.52232
0.52253
0.555973
0.550515
0.539047
0.533428
0.544699
0.602321
0.60701
0.523694
0.524458
0.516927
0.510918
0.580792
0.586042
0.614809
0.620015
0.620067
0.619096
0.619769
0.619457
0.625606
0.631341
0.619987
0.590895
0.590896
0.596778
0.602648
0.564403
0.570598
0.560124
0.559798
0.517057
0.523247
0.53628
0.542401
0.379921
0.374101
0.386532
0.380491
0.429844
0.424355
0.435402
0.498966
0.49894
0.455536
0.449639
0.482929
0.482403
0.493431
0.492855
0.493371
0.493649
0.478801
0.479247
0.468575
0.474679
0.45671
0.456997
0.450368
0.370375
0.376321
0.400968
0.394738
0.433831
0.428297
0.406872
0.412445
0.42912
0.428723
0.437625
0.443356
0.432336
0.432524
0.426076
0.37383
0.367849
0.396866
0.402633
0.391571
0.401174
0.407381
0.369315
0.375329
0.382422
0.356291
0.356279
0.353398
0.359224
0.35406
0.353921
0.348149
0.354176
0.239
0.233744
0.157697
0.157227
0.114323
0.115147
0.112572
0.131165
0.134946
0.129806
0.126135
0.119055
0.122411
0.115471
0.115642
0.103741
0.106466
0.0947387
0.0965591
0.0934675
0.0936877
0.106467
0.103509
0.0960809
0.098252
0.0935479
0.0919963
0.316927
0.31121
0.297347
0.291587
0.23408
0.233875
0.249865
0.2498
0.274956
0.280283
0.231178
0.231316
0.214988
0.215031
0.18815
0.1929
0.18377
0.183571
0.175593
0.175828
0.150346
0.150466
0.0892395
0.0891694
0.0887757
0.0886158
0.0884337
0.753519
0.749652
0.862348
0.860892
0.835246
0.837881
0.834749
0.827707
0.83597
0.837076
0.84495
0.84185
0.839193
0.841155
0.686731
0.680281
0.816822
0.815298
0.853002
0.850858
0.863947
0.864025
0.866581
0.867477
0.86255
0.863317
0.854738
0.853818
0.79637
0.801339
0.818196
0.820852
0.807586
0.805573
0.80362
0.839995
0.836486
0.836744
0.849107
0.851847
0.83408
0.835171
0.830852
0.858469
0.858751
0.859068
0.717276
0.719314
0.721763
0.747947
0.739834
0.551547
0.552835
0.466964
0.466528
0.264043
0.264564
0.173574
0.17825
0.172504
0.177156
0.123607
0.122775
0.144391
0.14067
0.241733
0.236479
0.326591
0.327448
0.272548
0.27176
0.268209
0.26738
0.28554
0.286461
0.247405
0.246536
0.233151
0.234025
0.131359
0.131953
0.113916
0.112148
0.108937
0.108242
0.161032
0.16166
0.153056
0.153515
0.125873
0.122713
0.0989082
0.0982423
0.773069
0.776815
0.770651
0.767014
0.665521
0.67021
0.644791
0.650084
0.678002
0.680211
0.650622
0.649155
0.667464
0.668785
0.726282
0.721591
0.733062
0.735784
0.693767
0.689978
0.69272
0.69618
0.680417
0.677096
0.686235
0.689002
0.715865
0.718046
0.705555
0.702846
0.705838
0.703426
0.699546
0.697047
0.763158
0.760231
0.849621
0.850543
0.849752
0.844723
0.84308
0.852903
0.852535
0.844816
0.776199
0.767745
0.770129
0.855737
0.855353
0.856814
0.84674
0.84522
0.826799
0.82851
0.84363
0.84217
0.841872
0.832214
0.812397
0.777099
0.777276
0.799812
0.795118
0.793908
0.834562
0.832616
0.81937
0.821069
0.849634
0.847136
0.848584
0.855315
0.854754
0.859712
0.861049
0.858861
0.859349
0.858296
0.857252
0.862846
0.862868
0.863995
0.864451
0.858493
0.85883
0.861099
0.86111
0.848479
0.847249
0.761808
0.764051
0.762919
0.758719
0.748696
0.750857
0.765191
0.760057
0.758751
0.75813
0.780751
0.819149
0.817674
0.823451
0.824282
0.807265
0.809346
0.836587
0.836182
0.711403
0.714728
0.751281
0.750393
0.683058
0.682845
0.44175
0.441558
0.441296
0.441175
0.59536
0.600812
0.555682
0.550163
0.552595
0.558193
0.600084
0.604764
0.510596
0.510537
0.527862
0.52217
0.544823
0.545013
0.539131
0.533518
0.601635
0.606273
0.529728
0.530537
0.517649
0.518369
0.553605
0.55916
0.612002
0.617192
0.61342
0.618616
0.618224
0.623737
0.603694
0.597003
0.626984
0.628057
0.620014
0.619945
0.631096
0.62538
0.584891
0.578849
0.558848
0.558224
0.566664
0.572772
0.523551
0.517379
0.536115
0.542262
0.369161
0.363238
0.368134
0.362257
0.386371
0.38036
0.429539
0.429555
0.45308
0.453246
0.493125
0.493149
0.483012
0.477152
0.490664
0.490169
0.488486
0.489031
0.504901
0.505542
0.50962
0.510076
0.453837
0.453385
0.46708
0.466654
0.468234
0.467872
0.480799
0.481122
0.450104
0.449828
0.462798
0.463097
0.395422
0.401205
0.376605
0.370671
0.401287
0.394985
0.43699
0.437426
0.424304
0.418699
0.412533
0.406917
0.407842
0.413495
0.437283
0.443002
0.438456
0.438667
0.374809
0.368803
0.396392
0.402141
0.387359
0.393407
0.400717
0.407001
0.381343
0.381884
0.269196
0.263554
0.330754
0.325008
0.347975
0.347641
0.342412
0.342661
0.354335
0.354585
0.217121
0.21213
0.148258
0.144206
0.0973437
0.0969138
0.122536
0.1262
0.126872
0.126607
0.123956
0.127498
0.125194
0.128783
0.125926
0.129617
0.118852
0.122198
0.112559
0.109596
0.0933707
0.0927757
0.0945535
0.0963872
0.103312
0.106288
0.0958068
0.0979974
0.0909982
0.0903726
0.0907403
0.090106
0.328207
0.328138
0.311151
0.316863
0.291421
0.297124
0.233697
0.233529
0.266109
0.266228
0.275273
0.280448
0.225706
0.225757
0.230985
0.236388
0.204559
0.209738
0.215077
0.215126
0.188978
0.189183
0.165934
0.166568
0.145861
0.145796
0.115003
0.118437
0.123708
0.123725
0.0948126
0.0947608
0.0895014
0.745705
0.741835
0.777056
0.772177
0.859341
0.857695
0.822514
0.822989
0.842686
0.839509
0.832617
0.831458
0.847349
0.848386
0.850249
0.849494
0.843004
0.845011
0.856645
0.858275
0.753996
0.751527
0.77479
0.777243
0.818067
0.820683
0.833371
0.830124
0.852289
0.854356
0.862768
0.862739
0.862666
0.863244
0.866656
0.86762
0.861989
0.861225
0.866986
0.866394
0.856362
0.855764
0.808677
0.805325
0.806417
0.818184
0.809925
0.814211
0.827136
0.831347
0.840005
0.842417
0.844461
0.846239
0.848069
0.844539
0.816323
0.817801
0.813547
0.845471
0.845032
0.826019
0.827345
0.710543
0.713984
0.715267
0.718452
0.748519
0.744413
0.721404
0.729403
0.690216
0.690772
0.621278
0.626014
0.669328
0.667735
0.270004
0.27606
0.279107
0.28542
0.208213
0.213476
0.204078
0.198907
0.131687
0.134494
0.124108
0.124599
0.137136
0.133819
0.260783
0.266282
0.317254
0.316734
0.355459
0.354583
0.307557
0.308432
0.223925
0.228566
0.277016
0.283106
0.28463
0.28373
0.291636
0.292557
0.233523
0.232696
0.25229
0.253162
0.238719
0.239601
0.191256
0.192019
0.141649
0.142197
0.111479
0.113213
0.172814
0.172167
0.165252
0.165921
0.156957
0.15752
0.148791
0.120183
0.117216
0.0993714
0.0987107
0.774966
0.771254
0.617386
0.618451
0.693063
0.69765
0.665409
0.670777
0.621322
0.616332
0.686642
0.688967
0.678241
0.680488
0.654131
0.652277
0.655388
0.656539
0.65712
0.657309
0.668443
0.667989
0.726983
0.722237
0.729563
0.732109
0.716452
0.712739
0.703583
0.70666
0.705412
0.702032
0.683331
0.679886
0.677853
0.67468
0.689597
0.686792
0.694485
0.691853
0.713271
0.715692
0.708795
0.706287
0.702523
0.704915
0.752183
0.757056
0.766584
0.848013
0.848812
0.768857
0.766025
0.825417
0.823101
0.843917
0.845725
0.856837
0.805292
0.809901
0.817669
0.830713
0.833247
0.839247
0.760599
0.765855
0.775922
0.780662
0.793134
0.787114
0.832584
0.834324
0.851976
0.84978
0.852206
0.856259
0.858623
0.858167
0.856711
0.856044
0.860061
0.859125
0.862423
0.862743
0.864298
0.864329
0.859933
0.85959
0.771102
0.77338
0.76136
0.763913
0.761627
0.763139
0.815914
0.814446
0.717704
0.714241
0.785575
0.789156
0.723679
0.728849
0.640962
0.646112
0.642814
0.642521
0.411986
0.411662
0.43489
0.434752
0.480851
0.475149
0.513563
0.507622
0.606216
0.534614
0.534882
0.522054
0.52202
0.510632
0.504844
0.602642
0.607458
0.595441
0.59626
0.604266
0.603941
0.50482
0.504757
0.516349
0.516297
0.550331
0.555799
0.567842
0.562491
0.605247
0.610157
0.535754
0.536611
0.522928
0.514839
0.50895
0.560059
0.554462
0.610584
0.615766
0.59788
0.603082
0.607852
0.606899
0.617273
0.622599
0.603603
0.596688
0.624302
0.629919
0.608591
0.614287
0.625726
0.631466
0.521543
0.520991
0.54583
0.552031
0.547375
0.55359
0.548015
0.554198
0.56675
0.572827
0.554653
0.548578
0.535633
0.541826
0.529965
0.393146
0.399395
0.368419
0.362526
0.36825
0.362366
0.413263
0.414362
0.409829
0.423622
0.423582
0.447185
0.447324
0.499311
0.499154
0.459861
0.460215
0.481581
0.481503
0.50094
0.501412
0.485239
0.479289
0.498278
0.497689
0.487382
0.486832
0.499486
0.498879
0.505637
0.505877
0.447969
0.447527
0.473147
0.47271
0.474331
0.47396
0.481422
0.449525
0.455461
0.45642
0.462488
0.372286
0.366362
0.376878
0.370961
0.389209
0.383279
0.417752
0.412569
0.431551
0.431078
0.427068
0.432716
0.418348
0.423923
0.419113
0.424723
0.432011
0.431656
0.421075
0.417376
0.421953
0.386782
0.380802
0.36702
0.372977
0.391054
0.3906
0.399521
0.405758
0.375859
0.369841
0.344289
0.344306
0.331685
0.326062
0.346851
0.352699
0.336763
0.332954
0.337656
0.342006
0.359754
0.35996
0.29582
0.290042
0.275611
0.281466
0.218671
0.223739
0.205512
0.205894
0.150674
0.146689
0.10724
0.10936
0.109057
0.129808
0.133661
0.130131
0.133966
0.12325
0.122963
0.127829
0.124314
0.13352
0.137698
0.125699
0.129383
0.11866
0.12198
0.0956343
0.0974262
0.0939227
0.0941731
0.102832
0.105727
0.103178
0.106118
0.100706
0.100814
0.0916177
0.0910094
0.0911395
0.0905184
0.0908652
0.0902353
0.357137
0.357135
0.316992
0.311276
0.344697
0.344766
0.239041
0.239223
0.277457
0.277568
0.266249
0.25798
0.252496
0.22029
0.220273
0.236234
0.230886
0.209817
0.204669
0.193882
0.198542
0.17495
0.175305
0.160386
0.159883
0.145688
0.145569
0.116557
0.116456
0.0898563
0.0899211
0.131391
0.131411
0.0973267
0.0972661
0.658546
0.662967
0.829831
0.83206
0.829064
0.787934
0.782708
0.855819
0.857613
0.847695
0.845411
0.846184
0.849385
0.837105
0.839733
0.832553
0.83329
0.831858
0.830857
0.835149
0.850972
0.669305
0.663593
0.767094
0.766579
0.784928
0.78812
0.78253
0.783519
0.840787
0.838126
0.826435
0.823255
0.825876
0.828196
0.835938
0.83272
0.85436
0.85228
0.850084
0.861398
0.861304
0.867441
0.86727
0.863655
0.864774
0.865717
0.859454
0.858133
0.858236
0.861464
0.860137
0.863933
0.864641
0.862815
0.864459
0.781427
0.781153
0.804242
0.799889
0.811022
0.809897
0.813164
0.817529
0.815227
0.824471
0.819316
0.834905
0.83781
0.832657
0.844031
0.81405
0.808088
0.766885
0.771103
0.848766
0.838892
0.843412
0.665822
0.664009
0.709067
0.712487
0.720981
0.722997
0.718413
0.745569
0.747162
0.706948
0.704152
0.713398
0.378815
0.372824
0.626592
0.621863
0.66115
0.662634
0.452336
0.459834
0.336222
0.335787
0.291795
0.291719
0.22021
0.214777
0.214208
0.208931
0.18297
0.187835
0.169895
0.165415
0.124065
0.123232
0.138986
0.142684
0.133283
0.136593
0.213974
0.208985
0.249929
0.244578
0.308396
0.302812
0.317678
0.33861
0.337924
0.322391
0.323197
0.328301
0.303966
0.304871
0.268813
0.268085
0.270994
0.278581
0.277682
0.241712
0.240845
0.232278
0.231406
0.210187
0.209384
0.158783
0.159427
0.115508
0.116142
0.127286
0.1304
0.11394
0.114611
0.107694
0.107009
0.20023
0.200949
0.160374
0.164566
0.152459
0.156328
0.102964
0.102319
0.104571
0.106821
0.757628
0.753567
0.765223
0.769206
0.642701
0.642535
0.623568
0.62249
0.700158
0.704588
0.70218
0.706655
0.631617
0.626082
0.622651
0.617604
0.690739
0.693117
0.682474
0.684756
0.661208
0.66313
0.653567
0.655083
0.64599
0.645392
0.653428
0.653719
0.664315
0.664378
0.671129
0.671108
0.780942
0.784558
0.768767
0.76505
0.708625
0.704429
0.743995
0.740749
0.709998
0.71363
0.701252
0.704249
0.699556
0.702854
0.696128
0.693061
0.686742
0.683629
0.678452
0.675237
0.695789
0.693103
0.68915
0.686369
0.72281
0.720508
0.713036
0.710392
0.704687
0.707139
0.763298
0.764102
0.7626
0.76095
0.768604
0.766579
0.765249
0.762579
0.802587
0.800339
0.825201
0.827526
0.852313
0.852011
0.852041
0.855779
0.856911
0.813038
0.80778
0.820798
0.819482
0.828766
0.831242
0.772492
0.77332
0.771647
0.769968
0.790498
0.785468
0.788186
0.850015
0.853565
0.860778
0.861311
0.859707
0.85994
0.858035
0.863594
0.863236
0.766225
0.768343
0.720906
0.71726
0.782665
0.78617
0.722419
0.727538
0.62526
0.630517
0.677254
0.677436
0.447688
0.447493
0.431988
0.426307
0.417499
0.41724
0.435062
0.475365
0.475246
0.480741
0.48064
0.51394
0.507983
0.596174
0.590183
0.614827
0.620156
0.527766
0.527728
0.516398
0.511664
0.505848
0.580026
0.585337
0.590914
0.588119
0.592189
0.59912
0.599487
0.510705
0.504935
0.51682
0.516608
0.516453
0.572102
0.572151
0.573124
0.588495
0.593453
0.55664
0.557485
0.528916
0.534891
0.520711
0.543967
0.538196
0.573335
0.56775
0.606817
0.605402
0.60605
0.601212
0.60966
0.608246
0.607313
0.603217
0.607414
0.584554
0.578368
0.614023
0.609201
0.612355
0.623364
0.629061
0.614296
0.608544
0.534933
0.535312
0.55264
0.546426
0.553931
0.54773
0.56652
0.572657
0.56065
0.548514
0.554617
0.529725
0.529441
0.413538
0.418988
0.388036
0.382006
0.38041
0.374525
0.373974
0.379775
0.386157
0.3802
0.40799
0.40246
0.417629
0.417539
0.429602
0.423794
0.482645
0.48291
0.487495
0.487642
0.493218
0.499038
0.44179
0.441637
0.464126
0.464046
0.499316
0.499537
0.499811
0.500137
0.464311
0.46479
0.491726
0.492285
0.484741
0.484266
0.501922
0.502467
0.494585
0.495151
0.481342
0.480815
0.502931
0.509125
0.511768
0.511988
0.449188
0.448812
0.477355
0.477851
0.472251
0.478333
0.473564
0.479671
0.455803
0.45612
0.390206
0.384383
0.371998
0.366097
0.36478
0.364468
0.382305
0.388336
0.421552
0.422481
0.407073
0.407763
0.425645
0.425128
0.437918
0.438446
0.415278
0.409704
0.425178
0.41959
0.436881
0.442598
0.432234
0.437883
0.432214
0.438282
0.426827
0.426578
0.38027
0.386215
0.373384
0.367415
0.394007
0.387922
0.309357
0.315289
0.322329
0.317542