/*--------------------------------*- C++ -*----------------------------------*\
  =========                 |
  \\      /  F ield         | OpenFOAM: The Open Source CFD Toolbox
   \\    /   O peration     | Website:  https://openfoam.org
    \\  /    A nd           | Version:  7
     \\/     M anipulation  |
\*---------------------------------------------------------------------------*/
FoamFile
{
    version     2.0;
    format      ascii;
    class       volScalarField;
    location    "1560";
    object      T;
}
// * * * * * * * * * * * * * * * * * * * * * * * * * * * * * * * * * * * * * //

dimensions      [0 0 0 1 0 0 0];

internalField   nonuniform List<scalar> 
238806
(
0.749011
0.751484
0.775463
0.779092
0.77394
0.75704
0.756626
0.74957
0.74749
0.779736
0.78132
0.771335
0.811132
0.812562
0.812046
0.806874
0.782383
0.784115
0.734157
0.733988
0.800757
0.803376
0.80726
0.808723
0.812112
0.779119
0.781521
0.782471
0.78822
0.786794
0.734914
0.733735
0.798008
0.794114
0.790463
0.786927
0.999432
0.999463
0.77718
0.775751
0.778447
0.782404
0.738561
0.737581
0.735151
0.735475
0.815297
0.810375
0.790297
0.786516
0.769506
0.768339
0.807622
0.809097
0.993781
0.99374
0.778193
0.775353
0.775764
0.771225
0.773033
0.775528
0.774069
0.775321
0.77273
0.736157
0.73642
0.745775
0.747376
0.757446
0.75964
0.79896
0.802836
0.789091
0.792704
0.776901
0.778621
0.790593
0.787087
0.96167
0.961511
0.786317
0.78241
0.749413
0.748482
0.766298
0.768836
0.789202
0.786931
0.785036
0.786891
0.769171
0.770888
0.74191
0.743003
0.776219
0.773519
0.775329
0.778772
0.782537
0.736849
0.745077
0.746147
0.747777
0.747361
0.82739
0.830368
0.794508
0.797929
0.796469
0.800363
0.777485
0.775374
0.771336
0.77246
0.809978
0.806438
0.999443
0.999439
0.999454
0.813096
0.818228
0.752157
0.753124
0.755152
0.754717
0.816214
0.81685
0.793222
0.792283
0.773619
0.787128
0.789381
0.787307
0.768222
0.76619
0.742274
0.741058
0.802662
0.806081
0.804251
0.802893
0.771921
0.740856
0.741243
0.741746
0.742762
0.74807
0.746921
0.75412
0.7556
0.763835
0.765287
0.825185
0.828757
0.803213
0.806391
0.801563
0.805391
0.803982
0.806529
0.779942
0.781616
0.768326
0.769342
0.791304
0.787739
0.953436
0.953602
0.999429
0.99946
0.789367
0.785681
0.884591
0.885391
0.885477
0.750268
0.751202
0.772041
0.773207
0.822433
0.822345
0.791863
0.786598
0.783918
0.784757
0.748537
0.749306
0.740581
0.739565
0.738815
0.737818
0.750256
0.751528
0.777186
0.77337
0.773538
0.792954
0.792466
0.776252
0.777233
0.735458
0.734687
0.742521
0.744214
0.744021
0.745393
0.763525
0.766264
0.757858
0.756383
0.858682
0.857585
0.834934
0.83855
0.818528
0.814517
0.806194
0.802023
0.795256
0.791752
0.777924
0.780201
0.773084
0.771225
0.772247
0.771314
0.790695
0.787136
0.925457
0.923139
0.981226
0.980426
0.980399
0.97954
0.995971
0.996192
0.754761
0.751958
0.763819
0.760417
0.828435
0.83312
0.89923
0.901098
0.754072
0.755015
0.768003
0.766876
0.772112
0.774777
0.7847
0.78748
0.806521
0.805419
0.779926
0.777447
0.742096
0.741633
0.741406
0.740541
0.741077
0.739894
0.785023
0.784743
0.752629
0.750952
0.776428
0.778084
0.79939
0.803392
0.770051
0.794292
0.762269
0.765657
0.761
0.73607
0.736898
0.73873
0.739696
0.744427
0.74337
0.752255
0.749496
0.751703
0.751555
0.756842
0.757624
0.837785
0.83998
0.824497
0.822093
0.837464
0.840949
0.827507
0.831528
0.809394
0.813558
0.804384
0.808558
0.804237
0.807994
0.810168
0.8117
0.785598
0.788529
0.777581
0.778589
0.773995
0.775771
0.8091
0.808509
0.794867
0.794264
0.795387
0.798783
0.951539
0.950038
0.936222
0.934146
0.957672
0.959146
0.962879
0.963026
0.984039
0.98399
0.996194
0.995972
0.999478
0.792421
0.789114
0.818723
0.813946
0.993092
0.993463
0.83802
0.835064
0.885966
0.887392
0.756191
0.758287
0.753457
0.752956
0.770565
0.769422
0.776842
0.779696
0.795583
0.795539
0.796712
0.798638
0.756641
0.753896
0.74092
0.742208
0.745433
0.746032
0.745563
0.739611
0.740774
0.779296
0.778992
0.761669
0.759548
0.752741
0.751876
0.78216
0.786252
0.809574
0.760837
0.763761
0.783876
0.780239
0.77431
0.771197
0.772349
0.773757
0.748071
0.749729
0.737089
0.736348
0.738849
0.739222
0.739555
0.740882
0.740902
0.742136
0.777358
0.774333
0.768668
0.765973
0.74949
0.749978
0.748
0.748814
0.756313
0.756403
0.758752
0.760232
0.767107
0.769769
0.854062
0.855312
0.821474
0.818741
0.840013
0.843369
0.829963
0.833848
0.820265
0.824627
0.812994
0.817593
0.806985
0.810662
0.808231
0.806812
0.788474
0.791353
0.775478
0.774414
0.786761
0.783063
0.797675
0.794129
0.79843
0.797836
0.792039
0.943407
0.941792
0.925465
0.923158
0.940461
0.942385
0.946063
0.94418
0.980453
0.981257
0.9779
0.977109
0.982575
0.983293
0.998526
0.998522
0.985849
0.985243
0.769937
0.768396
0.770713
0.822755
0.8247
0.822279
0.825047
0.823554
0.822083
0.993431
0.993387
0.870566
0.87292
0.882679
0.883962
0.886321
0.886397
0.837929
0.837331
0.75313
0.751933
0.756506
0.757897
0.763681
0.763327
0.769528
0.782383
0.782073
0.785324
0.799943
0.803178
0.803568
0.802032
0.743818
0.747431
0.744757
0.743099
0.744055
0.742833
0.743593
0.739257
0.738242
0.791002
0.790736
0.779947
0.782759
0.773864
0.776543
0.752418
0.754052
0.779359
0.776011
0.79043
0.788081
0.790011
0.807645
0.796368
0.796359
0.797683
0.799555
0.790127
0.774091
0.754047
0.751726
0.743211
0.74514
0.737522
0.738456
0.739796
0.738235
0.735983
0.736938
0.741224
0.740207
0.771961
0.77489
0.761443
0.764239
0.755719
0.753288
0.753993
0.753875
0.749935
0.751349
0.761592
0.761548
0.760127
0.759359
0.767971
0.766548
0.864
0.862546
0.840762
0.836513
0.812319
0.809314
0.827473
0.824392
0.834036
0.830697
0.82616
0.822471
0.832434
0.836186
0.822676
0.826938
0.815436
0.819945
0.803506
0.800245
0.809783
0.813371
0.798859
0.798102
0.801688
0.799665
0.79143
0.79425
0.78309
0.780041
0.787606
0.78847
0.770642
0.770291
0.780366
0.782998
0.785538
0.788766
0.79402
0.797585
0.802204
0.805641
0.963928
0.965102
0.950046
0.951543
0.936174
0.934089
0.955063
0.95522
0.959154
0.957674
0.967239
0.968361
0.979321
0.979413
0.977673
0.977674
0.983343
0.982623
0.998811
0.998884
0.999442
0.999474
0.992154
0.992128
0.996422
0.996417
0.78298
0.787456
0.75405
0.75391
0.831508
0.833448
0.793313
0.797517
0.797924
0.792837
0.82023
0.815528
0.991956
0.991907
0.999157
0.999171
0.909667
0.910392
0.894225
0.896117
0.896446
0.894994
0.887159
0.888026
0.887552
0.885256
0.757799
0.759355
0.752373
0.750574
0.74907
0.747401
0.757664
0.755683
0.761317
0.76093
0.771054
0.76842
0.776259
0.779632
0.828119
0.827597
0.7913
0.793894
0.792409
0.798288
0.804347
0.762285
0.762612
0.747586
0.748694
0.744779
0.745009
0.744572
0.74517
0.739842
0.738776
0.794067
0.793807
0.775597
0.778232
0.782125
0.781834
0.755915
0.754276
0.75064
0.749163
0.787968
0.791611
0.79019
0.779548
0.780812
0.78285
0.769034
0.765546
0.765903
0.766428
0.768821
0.78226
0.785939
0.803204
0.768734
0.749871
0.751952
0.7379
0.738768
0.737748
0.737441
0.738088
0.739077
0.770452
0.770404
0.773283
0.769212
0.77153
0.756052
0.753778
0.752302
0.754717
0.750972
0.748779
0.750867
0.750042
0.752878
0.755764
0.76548
0.764752
0.758939
0.758874
0.762051
0.764525
0.843778
0.841737
0.853167
0.854721
0.855693
0.854928
0.838261
0.836191
0.816123
0.812634
0.815342
0.812427
0.824595
0.821411
0.833483
0.836707
0.823583
0.819781
0.825082
0.82923
0.817865
0.822301
0.800678
0.797338
0.804787
0.803396
0.80725
0.809724
0.783613
0.785899
0.782806
0.785794
0.783095
0.784718
0.776643
0.776932
0.781238
0.778056
0.77867
0.785232
0.781631
0.801141
0.801208
0.793662
0.790211
0.804117
0.800623
0.836192
0.833275
0.963969
0.964003
0.954383
0.955797
0.952376
0.952142
0.930202
0.932342
0.942306
0.940372
0.946145
0.944256
0.980488
0.981294
0.972045
0.97213
0.970773
0.970728
0.976443
0.97559
0.976151
0.97527
0.980723
0.979951
0.981065
0.981834
0.994903
0.994628
0.998609
0.998517
0.999015
0.999075
0.999437
0.999469
0.999447
0.99948
0.99254
0.99255
0.999442
0.999422
0.999439
0.791191
0.789821
0.752823
0.753867
0.757825
0.749526
0.752218
0.742432
0.740869
0.823395
0.825207
0.803544
0.800942
0.799949
0.796049
0.775201
0.777136
0.779408
0.777121
0.873117
0.878458
0.995517
0.995752
0.993153
0.993109
0.995562
0.995531
0.99826
0.998258
0.887037
0.88436
0.865847
0.868209
0.891268
0.893297
0.898026
0.899952
0.891626
0.893072
0.886163
0.886223
0.886903
0.884183
0.885153
0.768417
0.766291
0.753688
0.754583
0.752026
0.750949
0.751046
0.755155
0.754352
0.7538
0.762211
0.760802
0.770891
0.771274
0.766032
0.763923
0.782105
0.779053
0.823122
0.822523
0.78774
0.790423
0.795552
0.790603
0.765545
0.766331
0.747015
0.746013
0.746231
0.746416
0.744457
0.74576
0.740386
0.741581
0.787987
0.787713
0.780943
0.783734
0.765787
0.763486
0.755792
0.757596
0.749215
0.747565
0.78428
0.780554
0.780106
0.810178
0.813565
0.807915
0.790025
0.791889
0.797449
0.799446
0.800337
0.805068
0.767179
0.762825
0.779905
0.776847
0.739191
0.737397
0.740606
0.741675
0.739671
0.740718
0.738312
0.737339
0.764697
0.765444
0.767479
0.758834
0.756335
0.751744
0.754109
0.74728
0.74749
0.753598
0.752021
0.764372
0.764347
0.762715
0.761244
0.859548
0.861108
0.861171
0.859883
0.850971
0.851838
0.831441
0.833642
0.819816
0.809333
0.806241
0.821934
0.824572
0.831383
0.827928
0.817131
0.821041
0.811075
0.806877
0.795373
0.794583
0.813878
0.816204
0.803046
0.805017
0.79303
0.795164
0.782993
0.780687
0.786344
0.787918
0.784167
0.7836
0.767604
0.767253
0.767269
0.76763
0.776307
0.777862
0.77788
0.804678
0.804707
0.792301
0.788775
0.8029
0.799364
0.965006
0.965059
0.965139
0.96517
0.95725
0.957253
0.953009
0.953006
0.929396
0.927375
0.932212
0.930063
0.94225
0.940305
0.953295
0.954927
0.95615
0.956154
0.968405
0.968389
0.973051
0.973133
0.96731
0.967254
0.98386
0.984523
0.977671
0.97776
0.978625
0.979411
0.975343
0.974435
0.976017
0.975127
0.983589
0.984276
0.980561
0.979755
0.981879
0.981107
0.988208
0.988238
0.998614
0.998618
0.999078
0.999018
0.999435
0.999467
0.999196
0.999138
0.996051
0.996257
0.992556
0.992168
0.99643
0.996426
0.997464
0.997459
0.764358
0.761084
0.760711
0.784387
0.788634
0.764419
0.767102
0.762329
0.756812
0.898922
0.902352
0.754363
0.757219
0.8358
0.837664
0.827164
0.829125
0.790537
0.795096
0.785803
0.788864
0.786954
0.785669
0.856974
0.852546
0.884053
0.8836
0.99871
0.99876
0.991416
0.991364
0.993474
0.993516
0.993064
0.993019
0.998808
0.998807
0.997596
0.997578
0.834445
0.831399
0.93019
0.929711
0.906319
0.905099
0.843382
0.840325
0.875045
0.872778
0.897382
0.895553
0.89019
0.891704
0.890696
0.8893
0.885307
0.886704
0.887873
0.838955
0.754439
0.75626
0.747608
0.74901
0.758584
0.75997
0.762042
0.759788
0.768672
0.768309
0.776703
0.773247
0.776513
0.774092
0.827221
0.827373
0.83099
0.816561
0.81794
0.779413
0.781968
0.800178
0.802078
0.761027
0.758575
0.759818
0.760499
0.750723
0.751458
0.746433
0.741959
0.743068
0.746149
0.746592
0.782968
0.785539
0.789516
0.788589
0.777215
0.77456
0.757622
0.759638
0.770351
0.768087
0.766583
0.777633
0.774211
0.785355
0.781858
0.797254
0.794117
0.793932
0.781441
0.779623
0.782986
0.786465
0.787989
0.793732
0.795711
0.801972
0.806667
0.770476
0.747707
0.747857
0.742431
0.741988
0.739822
0.738926
0.740165
0.740198
0.759878
0.759179
0.766679
0.76878
0.758379
0.756041
0.75402
0.751651
0.755251
0.754454
0.749539
0.749356
0.761991
0.762739
0.852959
0.854778
0.846182
0.847814
0.856649
0.85806
0.854273
0.853686
0.826824
0.829092
0.826424
0.824121
0.815528
0.818918
0.818396
0.815572
0.816028
0.811932
0.80843
0.809068
0.813338
0.815195
0.798402
0.796323
0.794472
0.79723
0.785097
0.784189
0.78967
0.791194
0.780111
0.780612
0.770274
0.770615
0.773813
0.773446
0.773496
0.77516
0.804959
0.805545
0.808199
0.808168
0.797137
0.795831
0.96388
0.963821
0.95861
0.958613
0.955865
0.954449
0.943622
0.941876
0.950932
0.950599
0.925835
0.925363
0.927866
0.928012
0.934436
0.936486
0.938394
0.938495
0.946267
0.944377
0.954614
0.952986
0.980647
0.981403
0.96727
0.967288
0.965744
0.966968
0.965932
0.965905
0.969531
0.969502
0.970827
0.981121
0.980319
0.979485
0.97863
0.977549
0.978577
0.979367
0.975419
0.974517
0.974356
0.974278
0.976746
0.976741
0.977666
0.978564
0.98303
0.98232
0.980647
0.979862
0.981928
0.981154
0.987651
0.987097
0.985124
0.985097
0.998744
0.998824
0.998463
0.998558
0.998954
0.998951
0.999331
0.99937
0.99944
0.999472
0.999295
0.999338
0.996045
0.996249
0.991637
0.991634
0.994653
0.994667
0.996829
0.996834
0.996622
0.996627
0.998332
0.998333
0.999418
0.999418
0.766984
0.763683
0.77917
0.780662
0.761291
0.763881
0.771226
0.773866
0.756613
0.757177
0.761449
0.80671
0.805198
0.736222
0.734432
0.831314
0.835193
0.833102
0.820864
0.819003
0.799728
0.80412
0.773719
0.773349
0.772103
0.770278
0.782416
0.781883
0.792488
0.879253
0.8773
0.878964
0.873672
0.996036
0.996012
0.998916
0.998908
0.994276
0.994303
0.99228
0.992237
0.993822
0.993863
0.99874
0.998736
0.997716
0.997734
0.851876
0.848667
0.842184
0.839166
0.927759
0.928236
0.924751
0.922988
0.917053
0.916845
0.910991
0.91146
0.870506
0.868228
0.896724
0.898712
0.902798
0.90447
0.889139
0.890703
0.893554
0.892125
0.884704
0.883537
0.761404
0.763727
0.759765
0.761715
0.749659
0.748065
0.752092
0.750439
0.763108
0.764541
0.766137
0.765788
0.771035
0.768409
0.773748
0.77146
0.809957
0.810458
0.814411
0.784841
0.786118
0.782862
0.785152
0.795399
0.797783
0.761234
0.76381
0.74803
0.749849
0.743303
0.742357
0.795512
0.794636
0.785642
0.786593
0.748222
0.746846
0.759342
0.757657
0.754214
0.755672
0.79073
0.794662
0.792447
0.780755
0.782275
0.77499
0.772156
0.786749
0.784822
0.783446
0.777845
0.799308
0.798873
0.859149
0.858454
0.776867
0.774213
0.783785
0.788158
0.784659
0.800851
0.802842
0.8046
0.796292
0.797911
0.747213
0.744911
0.746107
0.746423
0.74074
0.740346
0.734958
0.734416
0.734588
0.743508
0.743527
0.740479
0.740982
0.757232
0.756584
0.765325
0.763739
0.763443
0.760883
0.754603
0.757078
0.752183
0.75299
0.849447
0.85141
0.862738
0.865528
0.849481
0.851194
0.841287
0.842921
0.842809
0.846091
0.846256
0.844912
0.830325
0.832231
0.827966
0.829103
0.818455
0.821742
0.805756
0.805056
0.811767
0.80988
0.810551
0.812952
0.791996
0.789806
0.797581
0.800271
0.781799
0.780843
0.779995
0.780239
0.773408
0.773726
0.770703
0.772449
0.801403
0.801991
0.920918
0.9211
0.959905
0.959932
0.960695
0.96199
0.954315
0.955731
0.950028
0.951522
0.941818
0.943633
0.96045
0.960635
0.941956
0.943861
0.930563
0.930845
0.936512
0.934191
0.932112
0.929962
0.942217
0.940247
0.936375
0.934315
0.938316
0.946435
0.94455
0.9481
0.944265
0.946101
0.952986
0.954593
0.984187
0.984839
0.98273
0.981994
0.975194
0.975162
0.969435
0.969393
0.962515
0.962346
0.963178
0.961835
0.971111
0.971197
0.968369
0.968339
0.972804
0.972784
0.981792
0.982528
0.978545
0.978423
0.974694
0.974602
0.977055
0.977867
0.975198
0.976084
0.97383
0.973814
0.978581
0.978597
0.982271
0.982985
0.981343
0.981413
0.979432
0.980265
0.984086
0.983391
0.992789
0.993146
0.985828
0.985214
0.986377
0.986395
0.985146
0.995759
0.995982
0.99908
0.999015
0.998597
0.998506
0.999079
0.999018
0.999082
0.999021
0.999192
0.999139
0.999373
0.999334
0.999411
0.999409
0.99934
0.999296
0.999446
0.999479
0.985847
0.985237
0.994535
0.994544
0.995741
0.995746
0.995244
0.995498
0.997002
0.997009
0.996632
0.996637
0.998098
0.998095
0.999053
0.999054
0.999457
0.999479
0.843644
0.842674
0.785736
0.782092
0.783813
0.775511
0.777124
0.772151
0.773441
0.774921
0.766108
0.7492
0.832306
0.835105
0.78063
0.783318
0.73813
0.737388
0.760067
0.757596
0.82937
0.827615
0.795354
0.792293
0.808296
0.804051
0.771744
0.775053
0.771548
0.776912
0.774828
0.774123
0.776928
0.806352
0.802254
0.801485
0.905828
0.906071
0.860077
0.855801
0.930685
0.928161
0.99078
0.99079
0.997743
0.997599
0.998905
0.998896
0.994868
0.994592
0.988456
0.9885
0.992643
0.992684
0.99268
0.992632
0.994737
0.994701
0.99607
0.996043
0.999145
0.999159
0.998098
0.998083
0.999174
0.999219
0.832908
0.829845
0.836153
0.833137
0.906828
0.909072
0.914212
0.916607
0.918664
0.919588
0.918254
0.90967
0.909157
0.854217
0.857208
0.883207
0.885217
0.895336
0.897385
0.901285
0.903046
0.902439
0.900912
0.879867
0.881479
0.891023
0.892497
0.889191
0.89057
0.841955
0.841807
0.758905
0.761628
0.761836
0.76396
0.750777
0.751407
0.748906
0.747422
0.765512
0.766989
0.759094
0.758672
0.770792
0.773641
0.833064
0.832514
0.810391
0.788842
0.745457
0.74447
0.791589
0.792491
0.745604
0.759478
0.7613
0.756389
0.757263
0.772914
0.771307
0.775844
0.773059
0.770583
0.770284
0.79018
0.79528
0.794082
0.814445
0.829907
0.829147
0.774347
0.771416
0.786319
0.784347
0.795625
0.791843
0.80877
0.751579
0.753699
0.7588
0.747034
0.746822
0.746489
0.749079
0.744337
0.745532
0.737311
0.737294
0.734866
0.735211
0.745321
0.745351
0.742585
0.742067
0.759672
0.758268
0.762592
0.761873
0.758424
0.760954
0.833455
0.835616
0.842201
0.844458
0.853417
0.85665
0.859769
0.851672
0.850242
0.852894
0.856584
0.853006
0.849069
0.838663
0.835715
0.840162
0.833761
0.794539
0.793061
0.802334
0.801604
0.817245
0.819488
0.7889
0.786659
0.783431
0.78363
0.775249
0.774495
0.929449
0.931157
0.896696
0.897073
0.976689
0.975794
0.938267
0.936275
0.941834
0.943477
0.958544
0.958481
0.949915
0.951408
0.95445
0.955863
0.952987
0.935391
0.93374
0.957777
0.957558
0.95943
0.960822
0.942233
0.940551
0.929963
0.927969
0.927664
0.928083
0.927739
0.927843
0.925612
0.923297
0.927764
0.938262
0.938231
0.936287
0.934219
0.946643
0.94477
0.947894
0.947979
0.959273
0.957782
0.954581
0.952966
0.982907
0.983586
0.982023
0.982755
0.976115
0.97694
0.975218
0.963726
0.963748
0.971954
0.972963
0.966728
0.966847
0.964625
0.96477
0.964657
0.964631
0.967532
0.96745
0.969566
0.968406
0.971747
0.971723
0.972827
0.984019
0.983336
0.980267
0.981079
0.9755
0.976356
0.979451
0.978675
0.976216
0.976283
0.974884
0.973949
0.975797
0.975791
0.976739
0.983637
0.98432
0.980791
0.980025
0.981479
0.980302
0.97946
0.984182
0.983489
0.982672
0.985525
0.985532
0.985858
0.985245
0.985791
0.985805
0.9864
0.985781
0.994616
0.994891
0.997912
0.997923
0.998977
0.99896
0.999009
0.998603
0.998512
0.998649
0.998733
0.998886
0.998813
0.998958
0.998956
0.999193
0.999139
0.999375
0.999335
0.999406
0.999404
0.999134
0.999193
0.999339
0.999295
0.999383
0.999418
0.98915
0.989633
0.990786
0.991219
0.994789
0.994799
0.993923
0.993926
0.992373
0.99201
0.994952
0.994943
0.995739
0.995739
0.996842
0.996659
0.997016
0.997022
0.997314
0.997307
0.998091
0.99809
0.999487
0.999487
0.999456
0.999464
0.999474
0.855843
0.858781
0.74279
0.745126
0.777486
0.775474
0.77882
0.786826
0.777017
0.776461
0.76602
0.770469
0.773033
0.76989
0.899181
0.902577
0.800868
0.802428
0.756874
0.75988
0.74032
0.740046
0.735551
0.733736
0.74253
0.741222
0.75354
0.754754
0.820188
0.815533
0.79822
0.795483
0.808386
0.810627
0.812669
0.773484
0.776943
0.775676
0.761016
0.757838
0.779883
0.77787
0.783416
0.752961
0.749023
0.748701
0.884455
0.883
0.881244
0.86181
0.867568
0.951871
0.9515
0.971906
0.971997
0.993836
0.993814
0.997658
0.99751
0.997755
0.997612
0.998895
0.998885
0.998492
0.998578
0.994565
0.994843
0.98908
0.989021
0.993031
0.99307
0.993322
0.993362
0.992277
0.992229
0.994546
0.994582
0.995301
0.995268
0.998754
0.998743
0.999087
0.999121
0.999179
0.999195
0.997939
0.997926
0.998163
0.998155
0.998825
0.998893
0.999344
0.999371
0.839116
0.835992
0.840978
0.843936
0.908169
0.905874
0.91721
0.914856
0.9024
0.901114
0.915986
0.916765
0.908513
0.907744
0.873258
0.876265
0.869224
0.86726
0.893881
0.895995
0.894752
0.892792
0.902113
0.903827
0.899404
0.897917
0.881612
0.880198
0.887885
0.889507
0.88812
0.889562
0.891992
0.893424
0.846309
0.848668
0.756291
0.755923
0.758486
0.763786
0.765988
0.752589
0.753337
0.764412
0.834506
0.842983
0.840934
0.748244
0.747358
0.74732
0.76164
0.76425
0.786552
0.78337
0.76389
0.767017
0.768727
0.778962
0.800765
0.834143
0.833956
0.813432
0.817599
0.817887
0.777019
0.780565
0.793899
0.792091
0.758762
0.759908
0.763248
0.750455
0.751214
0.743339
0.741169
0.745627
0.744858
0.746277
0.747715
0.738701
0.738671
0.736635
0.73635
0.746093
0.745565
0.741798
0.741783
0.760993
0.762478
0.84753
0.845654
0.846743
0.850104
0.858023
0.85634
0.844568
0.848865
0.849923
0.850433
0.831292
0.796492
0.797928
0.791903
0.791078
0.808379
0.806453
0.776703
0.777093
0.884064
0.881984
0.856635
0.857224
0.899177
0.899347
0.974113
0.974168
0.974308
0.974341
0.936584
0.934675
0.950013
0.951516
0.950372
0.948803
0.936285
0.934669
0.961238
0.961244
0.957227
0.958586
0.952943
0.952873
0.954427
0.95584
0.935697
0.934073
0.956288
0.956049
0.959226
0.959025
0.950291
0.94873
0.931179
0.929225
0.930564
0.928592
0.92847
0.926313
0.933724
0.936099
0.924895
0.924442
0.927707
0.927697
0.923465
0.925768
0.940263
0.94222
0.948261
0.948457
0.945998
0.944132
0.957729
0.959218
0.954588
0.952965
0.984157
0.984811
0.984256
0.984902
0.982056
0.982784
0.976106
0.976083
0.972294
0.97224
0.964959
0.964938
0.96696
0.968097
0.965331
0.965459
0.965614
0.965487
0.962175
0.962004
0.960979
0.960878
0.972158
0.972238
0.969783
0.969856
0.969609
0.969659
0.967207
0.967169
0.972853
0.972884
0.970656
0.97063
0.980974
0.980214
0.983301
0.983985
0.98022
0.981043
0.975054
0.974974
0.97694
0.977769
0.978659
0.979441
0.979312
0.978519
0.974932
0.974001
0.974826
0.974816
0.98354
0.984229
0.980849
0.980089
0.982037
0.981272
0.980345
0.979494
0.982775
0.982722
0.992788
0.993147
0.988069
0.988588
0.986413
0.986446
0.986967
0.986943
0.985767
0.985744
0.995742
0.995967
0.998211
0.998318
0.999387
0.999394
0.998793
0.998711
0.998699
0.998704
0.998768
0.998688
0.998747
0.998665
0.998736
0.998651
0.998889
0.998817
0.99902
0.99908
0.999426
0.999457
0.999376
0.999337
0.999193
0.999134
0.999342
0.999297
0.999449
0.999482
0.999451
0.999484
0.988164
0.988175
0.98964
0.989158
0.991225
0.990797
0.994808
0.994817
0.992941
0.992931
0.992349
0.991994
0.995227
0.995222
0.994968
0.994688
0.996199
0.995975
0.99574
0.99574
0.996823
0.996817
0.99763
0.99761
0.998216
0.998217
0.998948
0.998876
0.998746
0.998745
0.999329
0.999331
0.999437
0.86172
0.864563
0.835758
0.840109
0.747041
0.749652
0.791875
0.79124
0.769157
0.772401
0.780706
0.78278
0.763139
0.762147
0.759854
0.760331
0.768568
0.766099
0.749804
0.746077
0.857799
0.859765
0.840287
0.838217
0.798688
0.796055
0.78218
0.786025
0.757986
0.755034
0.742123
0.742302
0.742408
0.741437
0.735281
0.733767
0.743712
0.746109
0.73487
0.736032
0.750449
0.750945
0.808227
0.811399
0.81018
0.798414
0.806209
0.801856
0.787667
0.783157
0.772491
0.769802
0.767634
0.764483
0.762381
0.766866
0.799324
0.797161
0.802685
0.766734
0.766095
0.791751
0.790457
0.88861
0.886503
0.885421
0.883376
0.861394
0.864388
0.879853
0.87467
0.8982
0.89788
0.929855
0.92805
0.908814
0.909774
0.993485
0.993115
0.993012
0.992606
0.996476
0.996262
0.996698
0.996891
0.998767
0.998718
0.998899
0.998889
0.998655
0.998724
0.993519
0.993181
0.989679
0.989708
0.986309
0.986384
0.990639
0.990585
0.995601
0.995376
0.992723
0.992321
0.992325
0.992373
0.991856
0.991806
0.995228
0.99526
0.99427
0.994232
0.995026
0.994992
0.997055
0.997034
0.998492
0.998482
0.999133
0.999099
0.99754
0.997556
0.997815
0.9978
0.998055
0.998044
0.998274
0.998922
0.998984
0.999337
0.999364
0.837502
0.840574
0.929213
0.928696
0.893384
0.890806
0.907491
0.904858
0.927483
0.929403
0.897559
0.896171
0.90201
0.900718
0.914129
0.915108
0.914199
0.913558
0.91375
0.913674
0.908327
0.908609
0.872811
0.875861
0.871766
0.869981
0.879953
0.882285
0.888613
0.88676
0.88723
0.889245
0.900319
0.902131
0.903707
0.905312
0.897514
0.89903
0.89487
0.896331
0.883119
0.881573
0.886059
0.887591
0.890191
0.88878
0.85475
0.850707
0.842844
0.759978
0.757917
0.842108
0.844457
0.788139
0.790797
0.765879
0.763465
0.745526
0.808061
0.802914
0.795574
0.781513
0.778477
0.770892
0.848184
0.843682
0.83503
0.830953
0.819571
0.825089
0.779635
0.777425
0.756663
0.758403
0.753803
0.749233
0.745591
0.746148
0.748217
0.750254
0.74312
0.744921
0.739459
0.738987
0.736012
0.736064
0.74376
0.744281
0.839728
0.837724
0.847959
0.845847
0.847567
0.84642
0.799945
0.801348
0.879944
0.882141
0.828373
0.825147
0.875419
0.872071
0.91941
0.917167
0.918473
0.91867
0.978602
0.978666
0.975363
0.975386
0.967366
0.968456
0.960008
0.961365
0.932732
0.954623
0.954525
0.958572
0.9586
0.961168
0.962444
0.935116
0.933415
0.937848
0.937523
0.934891
0.93504
0.962509
0.962516
0.959938
0.959943
0.951479
0.949987
0.946393
0.947952
0.934111
0.932344
0.954757
0.954497
0.957999
0.960027
0.961369
0.94841
0.949994
0.931795
0.929861
0.936168
0.934339
0.932279
0.932672
0.92889
0.92682
0.933769
0.93622
0.925936
0.923675
0.931988
0.929864
0.925507
0.923187
0.958171
0.958313
0.951936
0.950221
0.951497
0.949763
0.951347
0.949618
0.946008
0.944151
0.949636
0.951334
0.95466
0.953027
0.956163
0.981296
0.980491
0.984234
0.984881
0.984249
0.984895
0.978532
0.978385
0.979019
0.976997
0.976983
0.97329
0.973242
0.963574
0.963638
0.971258
0.971181
0.967284
0.967293
0.963254
0.963125
0.966406
0.967582
0.963649
0.963804
0.965878
0.966012
0.963334
0.963491
0.961987
0.961969
0.973165
0.973241
0.968637
0.968715
0.968451
0.968505
0.96714
0.972922
0.971895
0.971775
0.970689
0.983798
0.984469
0.983267
0.98395
0.981769
0.9825
0.977922
0.978662
0.975893
0.975975
0.976559
0.975693
0.977822
0.977
0.977709
0.976876
0.975774
0.975822
0.977454
0.977989
0.977316
0.982098
0.982829
0.984402
0.983724
0.98154
0.981593
0.980474
0.979635
0.98344
0.984134
0.98675
0.986743
0.987986
0.988496
0.986524
0.98593
0.987513
0.987867
0.987427
0.987011
0.985188
0.985167
0.991082
0.991509
0.992463
0.992063
0.995687
0.995449
0.996235
0.996223
0.998161
0.998269
0.999143
0.999097
0.999111
0.998626
0.998534
0.998621
0.99853
0.998781
0.998786
0.998682
0.998762
0.998559
0.998459
0.998739
0.998655
0.998891
0.99882
0.999364
0.999326
0.999401
0.999398
0.999197
0.99914
0.999194
0.999136
0.999246
0.999246
0.999445
0.999477
0.999448
0.999481
0.99945
0.999483
0.985367
0.985361
0.989143
0.989626
0.986631
0.986634
0.994526
0.994516
0.992185
0.992178
0.992928
0.993473
0.993799
0.995489
0.995488
0.994702
0.994979
0.995974
0.996197
0.996622
0.996434
0.997332
0.997322
0.997799
0.997815
0.998219
0.998221
0.998906
0.998907
0.999453
0.999453
0.998569
0.998569
0.99928
0.999282
0.914374
0.912334
0.784555
0.782801
0.786579
0.825598
0.830997
0.752126
0.749376
0.763047
0.766213
0.764339
0.761238
0.775732
0.772729
0.779657
0.77979
0.780865
0.782704
0.777706
0.757714
0.910282
0.913003
0.846264
0.846589
0.831217
0.828262
0.833649
0.832759
0.772378
0.775526
0.789817
0.793436
0.790648
0.788135
0.779279
0.783136
0.755056
0.758025
0.761056
0.744373
0.744564
0.734142
0.733673
0.740741
0.73878
0.736951
0.74726
0.747842
0.750422
0.743939
0.746248
0.740342
0.739057
0.740971
0.738969
0.833803
0.833975
0.812239
0.816508
0.805543
0.807087
0.803749
0.798689
0.801215
0.790637
0.796677
0.77912
0.776059
0.781732
0.769158
0.801749
0.807101
0.846809
0.842983
0.761965
0.774964
0.769558
0.91221
0.913224
0.889625
0.887555
0.881433
0.880343
0.883113
0.863578
0.862371
0.888896
0.890645
0.884842
0.983178
0.983878
0.927809
0.92962
0.912914
0.912034
0.974397
0.973136
0.988496
0.988511
0.99218
0.992186
0.996093
0.996319
0.996239
0.996454
0.997434
0.997273
0.997847
0.997977
0.998885
0.998875
0.998606
0.998522
0.998734
0.998664
0.996007
0.996222
0.994152
0.994448
0.990141
0.990583
0.989658
0.987877
0.987927
0.989369
0.989314
0.988962
0.990957
0.990903
0.993211
0.993245
0.993107
0.992726
0.992772
0.994844
0.994879
0.995334
0.995367
0.996267
0.996294
0.998082
0.998069
0.999061
0.999048
0.998817
0.998749
0.999081
0.99907
0.999201
0.999218
0.996545
0.996524
0.997954
0.997831
0.998175
0.998069
0.99928
0.999301
0.999226
0.99918
0.851332
0.854399
0.845462
0.842278
0.920196
0.920287
0.926714
0.927249
0.889429
0.886846
0.8882
0.885569
0.922644
0.924895
0.926859
0.928818
0.895316
0.893873
0.899794
0.898457
0.910984
0.90993
0.914789
0.913969
0.918478
0.918817
0.915418
0.915294
0.910405
0.910389
0.907117
0.907145
0.832352
0.829204
0.842233
0.845233
0.884566
0.887074
0.861106
0.86348
0.884078
0.881826
0.890147
0.888366
0.890842
0.8889
0.89327
0.895007
0.898761
0.900426
0.90333
0.904965
0.893989
0.895498
0.89781
0.899308
0.876761
0.878295
0.883114
0.884772
0.888691
0.88721
0.845384
0.844939
0.84601
0.847613
0.841548
0.843571
0.845024
0.84721
0.811031
0.813337
0.788573
0.785869
0.753095
0.75341
0.75525
0.748438
0.74697
0.800284
0.805487
0.792931
0.793805
0.783636
0.780889
0.837839
0.837397
0.838599
0.840329
0.821979
0.826472
0.824103
0.755304
0.753186
0.742119
0.741328
0.744292
0.743773
0.74667
0.737614
0.738016
0.843812
0.841988
0.877741
0.880088
0.830802
0.827683
0.876195
0.872896
0.925909
0.923789
0.902233
0.902082
0.973132
0.973189
0.975511
0.97639
0.977953
0.977991
0.975333
0.96839
0.968427
0.967394
0.967415
0.959876
0.961242
0.935971
0.938031
0.929452
0.927406
0.957208
0.957239
0.959861
0.960747
0.962046
0.942262
0.940564
0.939349
0.940202
0.938885
0.936696
0.936536
0.961215
0.962485
0.959812
0.959873
0.959915
0.945326
0.945306
0.944814
0.939982
0.938344
0.948965
0.948693
0.95653
0.95502
0.95865
0.952797
0.954311
0.944334
0.946026
0.933081
0.933679
0.933129
0.934863
0.931883
0.932478
0.932569
0.934107
0.932571
0.940312
0.942314
0.929919
0.931733
0.930525
0.926307
0.924024
0.929896
0.932039
0.954816
0.954727
0.950036
0.951761
0.949676
0.951409
0.946014
0.944139
0.947818
0.951305
0.949598
0.956194
0.956244
0.978566
0.977793
0.98193
0.982665
0.982856
0.983544
0.983596
0.982919
0.982095
0.982815
0.979317
0.980061
0.977874
0.977868
0.976116
0.97699
0.96685
0.966762
0.966042
0.965986
0.964903
0.963689
0.974323
0.974353
0.97054
0.970548
0.963685
0.96363
0.963559
0.963472
0.970305
0.970208
0.965058
0.964915
0.966531
0.96665
0.962985
0.962836
0.96434
0.964204
0.967092
0.967217
0.962487
0.961094
0.960591
0.960578
0.97297
0.973027
0.967822
0.967719
0.9688
0.967623
0.968567
0.967376
0.971847
0.971808
0.981641
0.982365
0.98383
0.984497
0.984643
0.984678
0.982627
0.98189
0.977382
0.977236
0.979428
0.979337
0.97679
0.976876
0.974885
0.97479
0.978276
0.979066
0.976808
0.97764
0.974991
0.974063
0.975749
0.974852
0.975795
0.974833
0.976584
0.97663
0.982884
0.982159
0.983682
0.984362
0.981208
0.98198
0.989842
0.989348
0.988797
0.989211
0.988911
0.987053
0.987602
0.985314
0.985279
0.98763
0.98761
0.987634
0.986393
0.986393
0.995141
0.995393