/*--------------------------------*- C++ -*----------------------------------*\
  =========                 |
  \\      /  F ield         | OpenFOAM: The Open Source CFD Toolbox
   \\    /   O peration     | Website:  https://openfoam.org
    \\  /    A nd           | Version:  7
     \\/     M anipulation  |
\*---------------------------------------------------------------------------*/
FoamFile
{
    version     2.0;
    format      ascii;
    class       volScalarField;
    location    "2340";
    object      T;
}
// * * * * * * * * * * * * * * * * * * * * * * * * * * * * * * * * * * * * * //

dimensions      [0 0 0 1 0 0 0];

internalField   nonuniform List<scalar> 
238806
(
1.05927e-09
1.09028e-09
1.88265e-09
1.96455e-09
1.81105e-09
1.27526e-09
1.26564e-09
1.05961e-09
1.032e-09
2.00178e-09
2.05589e-09
1.68366e-09
3.01871e-09
3.08791e-09
3.6225e-09
3.33378e-09
2.10642e-09
2.18187e-09
8.92876e-10
8.89646e-10
2.71168e-09
2.86649e-09
3.35079e-09
3.42056e-09
3.60479e-09
1.99212e-09
2.08899e-09
2.11931e-09
2.33393e-09
2.29565e-09
8.96711e-10
8.88263e-10
2.7443e-09
2.54338e-09
2.10776e-09
1.97686e-09
6.28642e-06
6.33134e-06
1.91e-09
1.83835e-09
1.9415e-09
2.12847e-09
1.0406e-09
1.03325e-09
8.98872e-10
9.02899e-10
3.74296e-09
3.44794e-09
2.35456e-09
2.17837e-09
1.48034e-09
1.43784e-09
2.83532e-09
2.90437e-09
5.9674e-07
5.84913e-07
1.94263e-09
1.85862e-09
1.85691e-09
1.70715e-09
1.77245e-09
1.82202e-09
1.76977e-09
1.79691e-09
1.71112e-09
9.06036e-10
9.09135e-10
1.00744e-09
1.03056e-09
1.1985e-09
1.24185e-09
2.75636e-09
2.97023e-09
2.27631e-09
2.45251e-09
1.70175e-09
1.77502e-09
2.12435e-09
1.99339e-09
8.76304e-08
8.70278e-08
1.71009e-09
1.5983e-09
1.16497e-09
1.14897e-09
1.50891e-09
1.57445e-09
2.40996e-09
2.3171e-09
2.22659e-09
2.30874e-09
1.62051e-09
1.69353e-09
1.07148e-09
1.08142e-09
1.73167e-09
1.65279e-09
1.7976e-09
1.93081e-09
2.08778e-09
9.14207e-10
9.95016e-10
1.01081e-09
1.03506e-09
1.0257e-09
4.37702e-09
4.61382e-09
2.49554e-09
2.67656e-09
2.64512e-09
2.85346e-09
1.78396e-09
1.69465e-09
1.51451e-09
1.55788e-09
2.96652e-09
2.78345e-09
7.66444e-06
7.64366e-06
7.69896e-06
2.5987e-09
2.78421e-09
1.20518e-09
1.22575e-09
1.2416e-09
1.23285e-09
3.89186e-09
3.93123e-09
2.5981e-09
2.54813e-09
1.76664e-09
2.32732e-09
2.41684e-09
2.32758e-09
1.62993e-09
1.54874e-09
1.07484e-09
1.06312e-09
3.03568e-09
3.19388e-09
3.11631e-09
3.02317e-09
1.67189e-09
9.61934e-10
9.78574e-10
9.56707e-10
9.69306e-10
1.03578e-09
1.01819e-09
1.12974e-09
1.15996e-09
1.31675e-09
1.35458e-09
4.26591e-09
4.53182e-09
2.88949e-09
3.07898e-09
2.87623e-09
3.09452e-09
2.86691e-09
3.02452e-09
1.79651e-09
1.87152e-09
1.41596e-09
1.44408e-09
2.12479e-09
1.9928e-09
6.41618e-08
6.4611e-08
6.2254e-06
6.26982e-06
1.79247e-09
1.68317e-09
1.03087e-08
1.04637e-08
1.04449e-08
1.1755e-09
1.19381e-09
1.62553e-09
1.66833e-09
4.27111e-09
4.27428e-09
2.53416e-09
2.29227e-09
2.18876e-09
2.21556e-09
1.15964e-09
1.16869e-09
1.06007e-09
1.05031e-09
1.04303e-09
1.0354e-09
1.17582e-09
1.19731e-09
1.86419e-09
1.76031e-09
1.73712e-09
2.54996e-09
2.52858e-09
1.85549e-09
1.90293e-09
9.04717e-10
8.98049e-10
9.67238e-10
9.86131e-10
9.85797e-10
1.00566e-09
1.38186e-09
1.45216e-09
1.20096e-09
1.16888e-09
6.97786e-09
6.86216e-09
5.00151e-09
5.29398e-09
3.87148e-09
3.60972e-09
3.18764e-09
2.958e-09
2.56008e-09
2.38188e-09
1.77342e-09
1.8709e-09
1.61227e-09
1.53918e-09
1.51746e-09
1.49015e-09
2.10773e-09
1.97641e-09
2.82179e-08
2.6667e-08
2.6625e-07
2.51254e-07
2.23855e-07
2.11383e-07
1.65632e-06
1.7525e-06
9.95693e-10
9.52878e-10
1.19895e-09
1.11839e-09
3.18718e-09
3.37905e-09
1.45711e-08
1.51584e-08
1.23819e-09
1.25973e-09
1.52806e-09
1.49094e-09
1.65106e-09
1.72718e-09
2.15491e-09
2.25737e-09
3.25864e-09
3.20056e-09
2.02056e-09
1.92169e-09
1.07755e-09
1.06581e-09
1.06849e-09
1.05772e-09
1.06176e-09
1.05172e-09
2.02301e-09
2.01294e-09
1.21168e-09
1.18495e-09
1.84911e-09
1.89598e-09
2.85917e-09
3.07202e-09
1.60695e-09
2.61941e-09
1.41312e-09
1.46768e-09
1.36499e-09
9.08986e-10
9.16965e-10
9.26861e-10
9.37016e-10
9.8877e-10
9.74647e-10
1.11851e-09
1.07966e-09
1.08512e-09
1.08436e-09
1.17188e-09
1.18799e-09
5.2363e-09
5.41113e-09
4.31198e-09
4.16387e-09
5.20155e-09
5.49274e-09
4.46482e-09
4.76099e-09
3.33143e-09
3.58714e-09
3.07793e-09
3.32087e-09
3.00456e-09
3.2263e-09
3.08815e-09
3.1948e-09
2.08465e-09
2.22317e-09
1.69135e-09
1.73655e-09
1.6161e-09
1.68847e-09
2.93109e-09
2.91265e-09
2.26586e-09
2.24854e-09
2.28159e-09
2.42171e-09
5.8307e-08
5.52147e-08
3.73116e-08
3.52716e-08
7.21233e-08
7.62286e-08
9.20509e-08
9.26781e-08
2.88926e-07
2.85748e-07
1.76083e-06
1.66361e-06
7.74425e-06
1.87786e-09
1.77433e-09
2.80024e-09
2.62472e-09
4.25157e-07
4.51516e-07
5.24998e-09
4.98587e-09
1.06431e-08
1.09163e-08
1.28668e-09
1.32773e-09
1.21316e-09
1.20484e-09
1.59548e-09
1.55537e-09
1.80535e-09
1.90921e-09
2.73654e-09
2.71537e-09
2.79272e-09
2.87177e-09
1.308e-09
1.25122e-09
1.08418e-09
1.07269e-09
1.10021e-09
1.11245e-09
1.11235e-09
1.04892e-09
1.0585e-09
1.82781e-09
1.81768e-09
1.41097e-09
1.35386e-09
1.23643e-09
1.20679e-09
2.11707e-09
2.25218e-09
3.39478e-09
1.34399e-09
1.41684e-09
2.14163e-09
1.98599e-09
1.76317e-09
1.6738e-09
1.68268e-09
1.75609e-09
1.06117e-09
1.09301e-09
9.1996e-10
9.12377e-10
9.29423e-10
9.34418e-10
9.35594e-10
9.50259e-10
9.50501e-10
9.67373e-10
1.80111e-09
1.70865e-09
1.53558e-09
1.46185e-09
1.05608e-09
1.06789e-09
1.03137e-09
1.04438e-09
1.16474e-09
1.16412e-09
1.21284e-09
1.24696e-09
1.40408e-09
1.46772e-09
6.55879e-09
6.68201e-09
3.94911e-09
3.74836e-09
5.41314e-09
5.70313e-09
4.63413e-09
4.92925e-09
4.0037e-09
4.29871e-09
3.58627e-09
3.87227e-09
3.14158e-09
3.36631e-09
3.00589e-09
2.90931e-09
2.19173e-09
2.33397e-09
1.64295e-09
1.59873e-09
1.95747e-09
1.84177e-09
2.4164e-09
2.26538e-09
2.41652e-09
2.39915e-09
2.15157e-09
4.50612e-08
4.27917e-08
2.83531e-08
2.68025e-08
4.12459e-08
4.36218e-08
5.00686e-08
4.72747e-08
2.50678e-07
2.65751e-07
1.97946e-07
1.88421e-07
2.56199e-07
2.70541e-07
3.9554e-06
3.92583e-06
4.02418e-07
3.81031e-07
1.46646e-09
1.41156e-09
1.48729e-09
2.95176e-09
3.03121e-09
2.94699e-09
3.04807e-09
2.99678e-09
2.93179e-09
5.62503e-07
5.51371e-07
9.08525e-09
9.47062e-09
1.00697e-08
1.03085e-08
1.0629e-08
1.06403e-08
5.36902e-09
5.3299e-09
1.23185e-09
1.20794e-09
1.27462e-09
1.3035e-09
1.41005e-09
1.39873e-09
1.57933e-09
2.04514e-09
2.02874e-09
2.14639e-09
2.92269e-09
3.13496e-09
3.11849e-09
3.05971e-09
1.11259e-09
1.119e-09
1.10204e-09
1.08427e-09
1.0951e-09
1.07986e-09
1.08864e-09
1.04717e-09
1.03906e-09
2.25225e-09
2.24198e-09
1.85215e-09
1.94612e-09
1.66341e-09
1.74203e-09
1.20973e-09
1.23979e-09
1.94571e-09
1.82602e-09
2.40828e-09
2.32167e-09
2.40081e-09
3.30667e-09
2.74109e-09
2.72212e-09
2.80273e-09
2.88404e-09
2.42252e-09
1.76334e-09
1.17404e-09
1.13195e-09
9.83979e-10
1.00599e-09
9.21549e-10
9.31259e-10
9.41933e-10
9.27057e-10
9.03279e-10
9.11459e-10
9.52244e-10
9.40895e-10
1.61704e-09
1.70211e-09
1.31635e-09
1.38314e-09
1.17247e-09
1.12801e-09
1.12216e-09
1.12205e-09
1.06364e-09
1.08995e-09
1.2647e-09
1.26691e-09
1.23591e-09
1.21917e-09
1.41639e-09
1.37733e-09
7.58425e-09
7.41049e-09
5.48145e-09
5.16182e-09
3.39506e-09
3.20057e-09
4.40308e-09
4.16756e-09
4.92157e-09
4.65486e-09
4.35309e-09
4.0877e-09
4.81253e-09
5.10641e-09
4.151e-09
4.44746e-09
3.72277e-09
4.01088e-09
2.93576e-09
2.74896e-09
3.28735e-09
3.51453e-09
2.50273e-09
2.45088e-09
2.72762e-09
2.6065e-09
2.3074e-09
2.45299e-09
2.02285e-09
1.89177e-09
2.02586e-09
2.07421e-09
1.47235e-09
1.46504e-09
1.76058e-09
1.83787e-09
1.92458e-09
2.03188e-09
2.24846e-09
2.39915e-09
2.57189e-09
2.73252e-09
1.00486e-07
1.06173e-07
5.51221e-08
5.82014e-08
3.74344e-08
3.5379e-08
6.79352e-08
6.84095e-08
7.67558e-08
7.26069e-08
1.1371e-07
1.20155e-07
2.18618e-07
2.20536e-07
1.86494e-07
1.85277e-07
2.73509e-07
2.58935e-07
4.30725e-06
4.4905e-06
6.51667e-06
6.56432e-06
8.30122e-07
8.24756e-07
1.90057e-06
1.89136e-06
1.89197e-09
2.04621e-09
1.04664e-09
1.06422e-09
3.31195e-09
3.40191e-09
1.91458e-09
2.04868e-09
2.06931e-09
1.91204e-09
2.85938e-09
2.68482e-09
4.6129e-07
4.52489e-07
3.58445e-06
3.61172e-06
1.81586e-08
1.83107e-08
1.32882e-08
1.38067e-08
1.30372e-08
1.26448e-08
1.08022e-08
1.09984e-08
1.08629e-08
1.04117e-08
1.32742e-09
1.37103e-09
1.21719e-09
1.18488e-09
1.15322e-09
1.13138e-09
1.29135e-09
1.25491e-09
1.35918e-09
1.34816e-09
1.6511e-09
1.57858e-09
1.8313e-09
1.93323e-09
4.64851e-09
4.6257e-09
2.4637e-09
2.5731e-09
2.54952e-09
2.83275e-09
3.14987e-09
1.45212e-09
1.46614e-09
1.13936e-09
1.15622e-09
1.09312e-09
1.10622e-09
1.09581e-09
1.10539e-09
1.05289e-09
1.04402e-09
2.38054e-09
2.37012e-09
1.72361e-09
1.80359e-09
1.92133e-09
1.91126e-09
1.27004e-09
1.24015e-09
1.1815e-09
1.15644e-09
2.32201e-09
2.4626e-09
2.43676e-09
1.97138e-09
2.00314e-09
2.07646e-09
1.5846e-09
1.5118e-09
1.47323e-09
1.48832e-09
1.55842e-09
2.07339e-09
2.23693e-09
3.08194e-09
1.57894e-09
1.09311e-09
1.12769e-09
9.2643e-10
9.3617e-10
9.20832e-10
9.16806e-10
9.22184e-10
9.34772e-10
1.54826e-09
1.54886e-09
1.62875e-09
1.5313e-09
1.61776e-09
1.21065e-09
1.16576e-09
1.10485e-09
1.14634e-09
1.08816e-09
1.05178e-09
1.07406e-09
1.06012e-09
1.1243e-09
1.1615e-09
1.34939e-09
1.33176e-09
1.21146e-09
1.21286e-09
1.29097e-09
1.34514e-09
5.72369e-09
5.55259e-09
6.51221e-09
6.66667e-09
6.67075e-09
6.59622e-09
5.28195e-09
5.13139e-09
3.67196e-09
3.44275e-09
3.5686e-09
3.3719e-09
4.20401e-09
3.96987e-09
4.86649e-09
5.13354e-09
4.18377e-09
3.91921e-09
4.30401e-09
4.60081e-09
3.86138e-09
4.15335e-09
2.80166e-09
2.61776e-09
2.82826e-09
2.73689e-09
3.03311e-09
3.19339e-09
1.96187e-09
2.06822e-09
1.98526e-09
2.12012e-09
1.9007e-09
1.97766e-09
1.64346e-09
1.66047e-09
1.76862e-09
1.68377e-09
1.70588e-09
1.90234e-09
1.78249e-09
2.55962e-09
2.57691e-09
2.21171e-09
2.08041e-09
2.66364e-09
2.50288e-09
5.0723e-09
4.83676e-09
1.00622e-07
1.00786e-07
6.46089e-08
6.82302e-08
6.19529e-08
6.1471e-08
3.12057e-08
3.29943e-08
4.38259e-08
4.14298e-08
5.03475e-08
4.75249e-08
2.50216e-07
2.6539e-07
1.4207e-07
1.42815e-07
1.28857e-07
1.27915e-07
1.81595e-07
1.72627e-07
1.77057e-07
1.68207e-07
2.33808e-07
2.21817e-07
2.29747e-07
2.42632e-07
1.19649e-06
1.13199e-06
4.08202e-06
3.89481e-06
4.85495e-06
5.035e-06
6.40429e-06
6.45049e-06
6.72509e-06
6.77574e-06
8.76732e-07
8.80886e-07
7.64661e-06
7.5758e-06
7.63243e-06
2.17621e-09
2.13003e-09
1.03752e-09
1.07882e-09
1.122e-09
9.10865e-10
9.49152e-10
8.40936e-10
8.11748e-10
2.97758e-09
3.05093e-09
2.22977e-09
2.13834e-09
2.1223e-09
1.99405e-09
1.44685e-09
1.49721e-09
1.54946e-09
1.49259e-09
6.28682e-09
6.87379e-09
1.06807e-06
1.12721e-06
5.51457e-07
5.40765e-07
8.47481e-07
8.30579e-07
2.42976e-06
2.40087e-06
1.29689e-08
1.23092e-08
8.37105e-09
8.71907e-09
1.28044e-08
1.33279e-08
1.43587e-08
1.49483e-08
1.18676e-08
1.22199e-08
1.06167e-08
1.06328e-08
1.07751e-08
1.02444e-08
1.0436e-08
1.6043e-09
1.53937e-09
1.24554e-09
1.27811e-09
1.19041e-09
1.16965e-09
1.18103e-09
1.25917e-09
1.23792e-09
1.22314e-09
1.39893e-09
1.3605e-09
1.58245e-09
1.59728e-09
1.51348e-09
1.44964e-09
2.04743e-09
1.94464e-09
4.30527e-09
4.26349e-09
2.29389e-09
2.40018e-09
2.70332e-09
2.44563e-09
1.52915e-09
1.56035e-09
1.13195e-09
1.11769e-09
1.13318e-09
1.13755e-09
1.09474e-09
1.1096e-09
1.05649e-09
1.06724e-09
2.13326e-09
2.12307e-09
1.8908e-09
1.98579e-09
1.51752e-09
1.44534e-09
1.27231e-09
1.30721e-09
1.16002e-09
1.1375e-09
2.1367e-09
2.00857e-09
2.02024e-09
3.46303e-09
3.65221e-09
3.35773e-09
2.37482e-09
2.45248e-09
2.74233e-09
2.84075e-09
2.92402e-09
3.17004e-09
1.52688e-09
1.42437e-09
2.00244e-09
1.875e-09
9.43813e-10
9.25624e-10
9.52353e-10
9.66149e-10
9.43219e-10
9.5611e-10
9.2353e-10
9.14396e-10
1.34137e-09
1.36789e-09
1.46214e-09
1.25778e-09
1.2058e-09
1.0907e-09
1.12988e-09
1.02219e-09
1.02406e-09
1.12357e-09
1.0949e-09
1.32431e-09
1.32728e-09
1.29814e-09
1.262e-09
7.12939e-09
7.30621e-09
7.25179e-09
7.10776e-09
6.27034e-09
6.34991e-09
4.78618e-09
4.93828e-09
4.02666e-09
3.23197e-09
3.03991e-09
3.95489e-09
4.15716e-09
4.72117e-09
4.45483e-09
3.76005e-09
4.02342e-09
3.45275e-09
3.20212e-09
2.34982e-09
2.29914e-09
3.39977e-09
3.56524e-09
2.76678e-09
2.89087e-09
2.31803e-09
2.4335e-09
1.96522e-09
1.86275e-09
2.01474e-09
2.09379e-09
1.86932e-09
1.85446e-09
1.40973e-09
1.39447e-09
1.39086e-09
1.39816e-09
1.63187e-09
1.68387e-09
1.67225e-09
2.72992e-09
2.74642e-09
2.15933e-09
2.02708e-09
2.61197e-09
2.45117e-09
1.05954e-07
1.06061e-07
1.06307e-07
1.06474e-07
7.24247e-08
7.25867e-08
6.14507e-08
6.157e-08
3.11683e-08
2.95945e-08
3.31164e-08
3.13174e-08
4.40267e-08
4.16091e-08
6.37301e-08
6.74742e-08
6.8672e-08
6.82296e-08
1.19623e-07
1.19902e-07
1.50014e-07
1.50819e-07
1.09376e-07
1.08555e-07
3.02708e-07
3.197e-07
1.96851e-07
1.98318e-07
2.06262e-07
2.17155e-07
1.69285e-07
1.60759e-07
1.7472e-07
1.65977e-07
2.87459e-07
3.03721e-07
2.28954e-07
2.16857e-07
2.4514e-07
2.32026e-07
4.44768e-07
4.48505e-07
4.11554e-06
4.14754e-06
5.08112e-06
4.89844e-06
6.34604e-06
6.39158e-06
5.85424e-06
5.64608e-06
1.80073e-06
1.90045e-06
8.84101e-07
8.33996e-07
1.91878e-06
1.90972e-06
2.58927e-06
2.57379e-06
1.26457e-09
1.19938e-09
1.18585e-09
1.93833e-09
2.09442e-09
1.30042e-09
1.38302e-09
1.25362e-09
1.1485e-09
1.1756e-08
1.25638e-08
9.95904e-10
1.0418e-09
3.49426e-09
3.58781e-09
3.13128e-09
3.2163e-09
1.83706e-09
1.97789e-09
1.729e-09
1.80621e-09
1.75985e-09
1.71753e-09
4.78151e-09
4.45927e-09
7.55056e-09
7.50026e-09
1.92503e-06
1.98445e-06
4.18205e-07
4.10151e-07
5.73767e-07
5.85156e-07
5.3019e-07
5.19721e-07
2.85175e-06
2.81488e-06
1.92123e-06
1.88798e-06
4.93781e-09
4.67798e-09
3.14191e-08
3.13125e-08
1.80823e-08
1.77708e-08
5.85815e-09
5.55155e-09
9.75281e-09
9.36871e-09
1.40216e-08
1.35059e-08
1.16851e-08
1.204e-08
1.15792e-08
1.12502e-08
1.05665e-08
1.08442e-08
1.09735e-08
5.44658e-09
1.25271e-09
1.28963e-09
1.12762e-09
1.14872e-09
1.31531e-09
1.34944e-09
1.37977e-09
1.33283e-09
1.52907e-09
1.51563e-09
1.85286e-09
1.76085e-09
1.82512e-09
1.72546e-09
4.60043e-09
4.59542e-09
4.84665e-09
3.87839e-09
3.96992e-09
1.97849e-09
2.07249e-09
2.92265e-09
3.00964e-09
1.39756e-09
1.35731e-09
1.37013e-09
1.40022e-09
1.1921e-09
1.20552e-09
1.12427e-09
1.06943e-09
1.08153e-09
1.1148e-09
1.12515e-09
2.01177e-09
2.10179e-09
2.20039e-09
2.15901e-09
1.76596e-09
1.68703e-09
1.31267e-09
1.36058e-09
1.62635e-09
1.58409e-09
1.53295e-09
1.88958e-09
1.79579e-09
2.20303e-09
2.06478e-09
2.73466e-09
2.57025e-09
2.60022e-09
2.01445e-09
1.91886e-09
2.05093e-09
2.20571e-09
2.26884e-09
2.5556e-09
2.64366e-09
3.00764e-09
3.25245e-09
1.6456e-09
1.0707e-09
1.07733e-09
9.68625e-10
9.61477e-10
9.47393e-10
9.3582e-10
9.40857e-10
9.40221e-10
1.2454e-09
1.22385e-09
1.40917e-09
1.47018e-09
1.27189e-09
1.21937e-09
1.15987e-09
1.12004e-09
1.14537e-09
1.12991e-09
1.05256e-09
1.05118e-09
1.2723e-09
1.28956e-09
6.52827e-09
6.71319e-09
5.90425e-09
6.04529e-09
6.81801e-09
6.96685e-09
6.53671e-09
6.48231e-09
4.46156e-09
4.61041e-09
4.45518e-09
4.30554e-09
3.608e-09
3.83904e-09
3.75312e-09
3.5543e-09
3.72629e-09
3.46699e-09
2.95655e-09
3.00692e-09
3.31588e-09
3.4515e-09
2.57529e-09
2.457e-09
2.43238e-09
2.58125e-09
1.95174e-09
1.90448e-09
2.13881e-09
2.21995e-09
1.74206e-09
1.75419e-09
1.4691e-09
1.48525e-09
1.55556e-09
1.54772e-09
1.5559e-09
1.60824e-09
2.73063e-09
2.74842e-09
2.91077e-09
2.92531e-09
2.35247e-09
2.30051e-09
1.0037e-07
1.00258e-07
7.65274e-08
7.67044e-08
6.87002e-08
6.50312e-08
4.4266e-08
4.18103e-08
5.82374e-08
5.77542e-08
2.87804e-08
2.85094e-08
2.96132e-08
2.95109e-08
3.48841e-08
3.68841e-08
3.91675e-08
3.90023e-08
5.06504e-08
4.78005e-08
6.57631e-08
6.2156e-08
2.5106e-07
2.65409e-07
1.13476e-07
1.13215e-07
1.04277e-07
1.10211e-07
1.01189e-07
1.00413e-07
1.19298e-07
1.18364e-07
1.29799e-07
2.49104e-07
2.35267e-07
2.22115e-07
2.0979e-07
1.95016e-07
2.0501e-07
2.15837e-07
1.70357e-07
1.6179e-07
1.59728e-07
1.58677e-07
1.75132e-07
1.73908e-07
1.83915e-07
1.94522e-07
2.79177e-07
2.64533e-07
2.31477e-07
2.19491e-07
2.47644e-07
2.34343e-07
4.33801e-07
4.10557e-07
3.33889e-07
3.31692e-07
3.65575e-06
3.82321e-06
3.57935e-06
3.75768e-06
4.71452e-06
4.67326e-06
6.02339e-06
6.15589e-06
6.46117e-06
6.50807e-06
6.06536e-06
6.22722e-06
1.79497e-06
1.8937e-06
7.50204e-07
7.47032e-07
1.25788e-06
1.25683e-06
2.14451e-06
2.15555e-06
2.0033e-06
2.01374e-06
3.7205e-06
3.70589e-06
7.5731e-06
7.56602e-06
1.36359e-09
1.27339e-09
1.75075e-09
1.80141e-09
1.23357e-09
1.29595e-09
1.50762e-09
1.59236e-09
1.12906e-09
1.15667e-09
1.22478e-09
2.35859e-09
2.31216e-09
7.61385e-10
7.44832e-10
3.30178e-09
3.46193e-09
3.38589e-09
2.87695e-09
2.80535e-09
2.12617e-09
2.27506e-09
1.39858e-09
1.40035e-09
1.35671e-09
1.33342e-09
1.6248e-09
1.61149e-09
1.91517e-09
6.34393e-09
6.19705e-09
6.92556e-09
6.33891e-09
8.42097e-07
8.26345e-07
2.39184e-06
2.41278e-06
9.33662e-07
9.46687e-07
5.24716e-07
5.15579e-07
6.0873e-07
6.20854e-07
2.75025e-06
2.70866e-06
1.98649e-06
2.0213e-06
6.76704e-09
6.38348e-09
5.65845e-09
5.36333e-09
2.97147e-08
2.97965e-08
2.57157e-08
2.45207e-08
2.10202e-08
2.09063e-08
1.84313e-08
1.85189e-08
9.00341e-09
8.6557e-09
1.41287e-08
1.47202e-08
1.51926e-08
1.57664e-08
1.1546e-08
1.19035e-08
1.22725e-08
1.19187e-08
1.03936e-08
1.01698e-08
1.40454e-09
1.45548e-09
1.37119e-09
1.42235e-09
1.16214e-09
1.1378e-09
1.19572e-09
1.17104e-09
1.41071e-09
1.45329e-09
1.46666e-09
1.45448e-09
1.6762e-09
1.58946e-09
1.73202e-09
1.6468e-09
3.48873e-09
3.49937e-09
3.72121e-09
2.20824e-09
2.25284e-09
2.10768e-09
2.18289e-09
2.6715e-09
2.77691e-09
1.41642e-09
1.47744e-09
1.14686e-09
1.17463e-09
1.0868e-09
1.07347e-09
2.44983e-09
2.40708e-09
2.04832e-09
2.08884e-09
1.13898e-09
1.12201e-09
1.33527e-09
1.30142e-09
1.2408e-09
1.27475e-09
2.41706e-09
2.59286e-09
2.50914e-09
2.00211e-09
2.06324e-09
1.79223e-09
1.71404e-09
2.24593e-09
2.18194e-09
2.11042e-09
1.8924e-09
2.83864e-09
2.81963e-09
6.9657e-09
6.89353e-09
1.82698e-09
1.72004e-09
2.08754e-09
2.30299e-09
2.14592e-09
2.92087e-09
3.03629e-09
3.12293e-09
2.70924e-09
2.78908e-09
1.04215e-09
1.02092e-09
1.02805e-09
1.04338e-09
9.50131e-10
9.44157e-10
8.96394e-10
8.8972e-10
8.94685e-10
9.75188e-10
9.76714e-10
9.42478e-10
9.47852e-10
1.193e-09
1.17411e-09
1.39868e-09
1.34204e-09
1.39453e-09
1.33112e-09
1.16131e-09
1.20929e-09
1.09282e-09
1.10755e-09
6.21723e-09
6.4064e-09
7.49798e-09
7.77347e-09
6.19543e-09
6.356e-09
5.51025e-09
5.64072e-09
5.62443e-09
5.89694e-09
5.88901e-09
5.7857e-09
4.73528e-09
4.84992e-09
4.56679e-09
4.6249e-09
3.78351e-09
4.01614e-09
2.83393e-09
2.78059e-09
3.25147e-09
3.1202e-09
3.21045e-09
3.37344e-09
2.30198e-09
2.18935e-09
2.56694e-09
2.71886e-09
1.83929e-09
1.79307e-09
1.74468e-09
1.76161e-09
1.55185e-09
1.56857e-09
1.48354e-09
1.53579e-09
2.55974e-09
2.57724e-09
2.49864e-08
2.4913e-08
8.14226e-08
8.12438e-08
8.33656e-08
8.80505e-08
6.44475e-08
6.80496e-08
5.50292e-08
5.80893e-08
4.16581e-08
4.42046e-08
8.34252e-08
8.40028e-08
4.43695e-08
4.69889e-08
3.235e-08
3.2489e-08
3.81474e-08
3.58135e-08
3.3238e-08
3.14332e-08
4.44265e-08
4.19587e-08
3.70327e-08
3.50186e-08
3.93274e-08
5.0989e-08
4.81151e-08
5.36559e-08
4.61372e-08
4.87987e-08
6.10411e-08
6.45391e-08
3.20762e-07
3.39123e-07
2.98517e-07
2.81997e-07
1.7833e-07
1.78731e-07
1.24862e-07
1.24412e-07
9.05322e-08
8.99767e-08
9.32985e-08
8.82295e-08
1.33542e-07
1.34463e-07
1.1294e-07
1.12056e-07
1.40526e-07
1.39469e-07
2.59577e-07
2.74351e-07
2.08193e-07
2.06151e-07
1.63908e-07
1.62832e-07
1.87397e-07
1.97065e-07
1.67107e-07
1.75914e-07
1.48412e-07
1.47325e-07
1.9609e-07
1.97591e-07
2.62436e-07
2.76979e-07
2.41759e-07
2.44241e-07
2.05715e-07
2.17452e-07
2.92012e-07
2.7639e-07
8.75913e-07
9.27702e-07
3.60643e-07
3.41545e-07
3.7177e-07
3.74093e-07
3.35867e-07
1.35586e-06
1.4312e-06
5.53755e-06
5.31957e-06
4.01137e-06
3.82852e-06
5.25961e-06
5.0687e-06
5.16628e-06
4.97925e-06
5.53336e-06
5.3518e-06
6.21137e-06
6.07678e-06
6.43227e-06
6.37805e-06
6.32096e-06
6.15435e-06
6.67502e-06
6.72492e-06
4.03136e-07
3.8158e-07
1.26079e-06
1.26557e-06
1.60232e-06
1.60952e-06
1.39677e-06
1.47858e-06
2.24518e-06
2.25877e-06
2.02394e-06
2.03391e-06
3.40085e-06
3.38255e-06
5.86006e-06
5.84612e-06
7.69846e-06
7.73324e-06
4.81726e-09
4.75144e-09
1.97134e-09
1.84187e-09
1.91092e-09
1.62921e-09
1.68084e-09
1.53294e-09
1.57374e-09
1.61364e-09
1.36452e-09
9.92453e-10
3.39436e-09
3.53944e-09
1.51983e-09
1.59276e-09
7.79763e-10
7.72561e-10
1.09104e-09
1.04198e-09
3.22312e-09
3.14749e-09
1.96513e-09
1.86906e-09
2.41046e-09
2.26148e-09
1.36554e-09
1.43306e-09
1.34776e-09
1.48336e-09
1.43711e-09
1.41989e-09
1.4941e-09
2.34594e-09
2.21544e-09
2.20218e-09
1.01013e-08
1.01744e-08
4.99978e-09
4.67616e-09
2.45286e-08
2.30473e-08
2.76689e-07
2.76873e-07
1.29466e-06
1.22876e-06
2.3516e-06
2.37219e-06
1.05616e-06
9.99992e-07
3.38712e-07
3.43798e-07
5.47546e-07
5.57274e-07
4.99679e-07
4.89858e-07
7.11832e-07
6.97657e-07
1.07113e-06
1.05105e-06
3.51418e-06
3.54144e-06
2.33845e-06
2.29826e-06
4.48953e-06
4.60935e-06
4.8071e-09
4.55121e-09
5.08554e-09
4.82256e-09
1.84994e-08
1.94474e-08
2.31543e-08
2.44758e-08
2.18788e-08
2.244e-08
2.16679e-08
1.77549e-08
1.76595e-08
7.08642e-09
7.47472e-09
1.09838e-08
1.14025e-08
1.38842e-08
1.44769e-08
1.49321e-08
1.55134e-08
1.48496e-08
1.4356e-08
9.91253e-09
1.0204e-08
1.17928e-08
1.2146e-08
1.12585e-08
1.15742e-08
5.67449e-09
5.66514e-09
1.34629e-09
1.39594e-09
1.41766e-09
1.47898e-09
1.17797e-09
1.1895e-09
1.14866e-09
1.12858e-09
1.46646e-09
1.5133e-09
1.31429e-09
1.30382e-09
1.66241e-09
1.74328e-09
5.01488e-09
4.97776e-09
3.50854e-09
2.34303e-09
1.11176e-09
1.09945e-09
2.27845e-09
2.32058e-09
1.10688e-09
1.3445e-09
1.38499e-09
1.27882e-09
1.31536e-09
1.76188e-09
1.7072e-09
1.8362e-09
1.72459e-09
1.65496e-09
1.65556e-09
2.39693e-09
2.63781e-09
2.60177e-09
3.67898e-09
4.70525e-09
4.65912e-09
1.7453e-09
1.63421e-09
2.22978e-09
2.15345e-09
2.66382e-09
2.47723e-09
3.35942e-09
1.12932e-09
1.17885e-09
1.27711e-09
1.05265e-09
1.03846e-09
1.02739e-09
1.05873e-09
1.00609e-09
1.02885e-09
9.14142e-10
9.14656e-10
8.94227e-10
8.97484e-10
9.96953e-10
9.99304e-10
9.64768e-10
9.58806e-10
1.26347e-09
1.22248e-09
1.30381e-09
1.27954e-09
1.26188e-09
1.31888e-09
4.91223e-09
5.07051e-09
5.59625e-09
5.79267e-09
6.60842e-09
6.91158e-09
7.20945e-09
6.36923e-09
6.2373e-09
6.44794e-09
6.75991e-09
6.42516e-09
6.11322e-09
5.32338e-09
5.08642e-09
5.42469e-09
4.95359e-09
2.35644e-09
2.2732e-09
2.66472e-09
2.61175e-09
3.60276e-09
3.77014e-09
2.18028e-09
2.07068e-09
1.85584e-09
1.87251e-09
1.59749e-09
1.57386e-09
2.95104e-08
3.09309e-08
1.47019e-08
1.47034e-08
2.03892e-07
1.92987e-07
4.35778e-08
4.11835e-08
4.25639e-08
4.4872e-08
7.61311e-08
7.59082e-08
5.48269e-08
5.78492e-08
6.48989e-08
6.85531e-08
6.13242e-08
3.4532e-08
3.29135e-08
7.51132e-08
7.45613e-08
7.99921e-08
8.45704e-08
4.32777e-08
4.1094e-08
3.14885e-08
2.99036e-08
3.01905e-08
3.04459e-08
3.01125e-08
3.02745e-08
2.79939e-08
2.64533e-08
2.9724e-08
3.94814e-08
3.96283e-08
3.71762e-08
3.51492e-08
5.13543e-08
4.84637e-08
5.30196e-08
5.33266e-08
7.83569e-08
7.40778e-08
6.49434e-08
6.14095e-08
2.91705e-07
3.08104e-07
2.81478e-07
2.97932e-07
1.86259e-07
1.96049e-07
1.77843e-07
9.61358e-08
9.5922e-08
1.41294e-07
1.4917e-07
1.08788e-07
1.09505e-07
9.92779e-08
9.98998e-08
9.57675e-08
9.5043e-08
1.11813e-07
1.11006e-07
1.2022e-07
1.13815e-07
1.33068e-07
1.32046e-07
1.41546e-07
3.11592e-07
2.94782e-07
2.33845e-07
2.4772e-07
1.71454e-07
1.80347e-07
2.18955e-07
2.08032e-07
1.78162e-07
1.7924e-07
1.61421e-07
1.533e-07
1.65651e-07
1.64497e-07
1.7618e-07
2.90018e-07
3.06415e-07
2.35935e-07
2.2388e-07
2.46586e-07
2.19505e-07
2.07528e-07
2.98005e-07
2.82035e-07
2.61623e-07
3.67872e-07
3.66796e-07
3.62894e-07
3.43607e-07
3.56891e-07
3.58634e-07
3.75861e-07
3.5518e-07
1.12303e-06
1.18695e-06
2.84606e-06
2.87588e-06
4.98339e-06
4.91207e-06
5.07775e-06
4.04712e-06
3.86231e-06
3.94022e-06
4.12367e-06
4.52975e-06
4.34472e-06
4.79236e-06
4.75432e-06
5.57763e-06
5.3925e-06
6.26526e-06
6.12843e-06
6.32242e-06
6.26533e-06
5.48777e-06
5.69364e-06
6.27462e-06
6.11018e-06
6.64721e-06
6.77369e-06
5.69434e-07
6.02321e-07
6.66414e-07
7.05636e-07
1.32143e-06
1.32712e-06
1.11348e-06
1.11661e-06
8.44122e-07
7.99753e-07
1.33289e-06
1.33515e-06
1.58357e-06
1.57753e-06
2.25744e-06
2.13731e-06
2.27177e-06
2.28409e-06
2.45665e-06
2.44123e-06
3.36362e-06
3.34588e-06
7.31484e-06
7.34746e-06
7.69105e-06
7.69789e-06
7.72083e-06
5.85293e-09
6.13189e-09
8.34659e-10
8.6311e-10
1.68227e-09
1.59897e-09
1.70928e-09
1.99604e-09
1.68628e-09
1.65959e-09
1.35215e-09
1.47932e-09
1.56454e-09
1.47984e-09
1.16777e-08
1.24718e-08
2.14698e-09
2.1936e-09
1.02223e-09
1.07292e-09
8.00148e-10
7.98765e-10
7.56177e-10
7.41628e-10
8.29746e-10
8.13484e-10
9.96154e-10
1.0177e-09
2.84678e-09
2.66188e-09
2.05182e-09
1.96122e-09
2.42427e-09
2.49809e-09
2.56862e-09
1.38682e-09
1.47968e-09
1.45437e-09
1.12966e-09
1.06734e-09
1.55922e-09
1.51317e-09
1.65541e-09
8.78787e-10
8.43036e-10
8.34474e-10
6.76393e-09
6.64083e-09
6.49742e-09
5.22238e-09
5.73696e-09
4.46509e-08
4.39014e-08
7.00227e-08
7.04499e-08
4.86057e-07
4.79264e-07
1.50008e-06
1.4228e-06
1.31517e-06
1.24832e-06
2.31294e-06
2.3332e-06
1.90504e-06
1.98628e-06
9.86243e-07
1.04166e-06
3.28073e-07
3.22185e-07
5.81395e-07
5.9175e-07
5.9514e-07
6.06196e-07
4.70905e-07
4.6169e-07
7.12501e-07
7.26545e-07
7.99822e-07
7.83857e-07
2.48837e-06
2.44152e-06
3.39917e-06
3.46516e-06
3.72714e-06
3.75509e-06
2.11868e-06
2.08352e-06
2.32673e-06
2.29301e-06
3.18317e-06
3.30222e-06
5.09826e-06
5.13833e-06
5.37289e-09
5.07991e-09
5.52934e-09
5.82538e-09
1.92429e-08
1.82911e-08
2.46793e-08
2.33615e-08
1.62563e-08
1.59845e-08
2.14854e-08
2.16927e-08
1.75328e-08
1.73769e-08
1.01535e-08
1.07511e-08
8.5785e-09
8.30112e-09
1.36285e-08
1.42221e-08
1.35744e-08
1.30532e-08
1.50759e-08
1.56535e-08
1.38907e-08
1.3452e-08
1.00326e-08
9.7811e-09
1.13779e-08
1.17385e-08
1.11423e-08
1.14584e-08
1.19092e-08
1.2262e-08
6.10533e-09
6.34506e-09
1.29275e-09
1.27508e-09
1.31963e-09
1.46788e-09
1.52496e-09
1.206e-09
1.22101e-09
1.43243e-09
5.11148e-09
5.64879e-09
5.46513e-09
1.13715e-09
1.13161e-09
1.12242e-09
1.3978e-09
1.46199e-09
2.17568e-09
2.07719e-09
1.48206e-09
1.55884e-09
1.59582e-09
1.94854e-09
2.91114e-09
4.99825e-09
4.98702e-09
3.63672e-09
3.9009e-09
3.95388e-09
1.82405e-09
1.9288e-09
2.58777e-09
2.50795e-09
1.29379e-09
1.34262e-09
1.38257e-09
1.11215e-09
1.12821e-09
9.95271e-10
9.66526e-10
1.01513e-09
1.00135e-09
1.03211e-09
1.05857e-09
9.26232e-10
9.26727e-10
9.081e-10
9.04717e-10
1.00616e-09
9.99198e-10
9.56415e-10
9.57385e-10
1.27889e-09
1.32554e-09
6.04005e-09
5.87382e-09
6.00093e-09
6.30377e-09
7.01452e-09
6.83385e-09
5.77049e-09
6.1153e-09
6.1799e-09
6.22436e-09
4.75969e-09
2.41782e-09
2.50331e-09
2.20695e-09
2.15743e-09
3.06522e-09
2.93784e-09
1.63983e-09
1.64938e-09
1.07348e-08
1.0332e-08
7.07149e-09
7.17282e-09
1.56683e-08
1.56303e-08
1.69568e-07
1.69387e-07
1.73526e-07
1.73658e-07
4.04141e-08
3.82985e-08
5.53204e-08
5.84217e-08
5.9092e-08
5.59606e-08
3.54958e-08
3.38103e-08
8.54538e-08
8.56674e-08
7.22508e-08
7.63351e-08
6.11943e-08
6.10503e-08
6.47563e-08
6.83945e-08
3.47022e-08
3.30876e-08
7.10222e-08
7.04822e-08
7.94369e-08
7.88727e-08
5.63902e-08
5.34456e-08
3.2173e-08
3.05504e-08
3.18283e-08
3.02254e-08
3.06592e-08
2.90392e-08
3.53356e-08
3.76774e-08
2.82232e-08
2.79272e-08
2.98432e-08
2.9972e-08
2.63703e-08
2.79016e-08
4.17852e-08
4.42262e-08
5.40143e-08
5.43971e-08
4.95501e-08
4.6812e-08
7.35845e-08
7.78205e-08
6.53507e-08
6.17802e-08
3.1898e-07
3.37243e-07
3.26882e-07
3.45546e-07
2.81062e-07
2.97413e-07
1.88373e-07
1.88888e-07
1.51232e-07
1.51453e-07
1.01379e-07
1.01607e-07
1.10139e-07
1.16349e-07
1.0223e-07
1.02767e-07
1.03603e-07
1.02919e-07
8.94059e-08
8.8823e-08
8.46303e-08
8.40404e-08
1.40876e-07
1.41846e-07
1.23847e-07
1.24741e-07
1.21134e-07
1.22041e-07
1.07733e-07
1.06907e-07
1.42534e-07
1.43503e-07
1.26e-07
1.25019e-07
2.42486e-07
2.29955e-07
2.93112e-07
3.09768e-07
2.32503e-07
2.46447e-07
1.68173e-07
1.67195e-07
1.85125e-07
1.948e-07
2.07292e-07
2.18226e-07
2.14307e-07
2.03577e-07
1.62506e-07
1.54343e-07
1.56769e-07
1.55655e-07
2.84779e-07
3.00903e-07
2.37862e-07
2.25718e-07
2.5273e-07
2.39221e-07
2.21616e-07
2.0938e-07
2.66963e-07
2.64303e-07
8.72132e-07
9.23868e-07
4.49349e-07
4.74518e-07
3.80558e-07
3.83077e-07
3.98294e-07
3.9874e-07
3.5327e-07
3.51009e-07
1.34065e-06
1.41515e-06
2.94768e-06
3.09569e-06
5.29125e-06
5.36685e-06
4.61379e-06
4.40741e-06
4.30987e-06
4.34468e-06
4.42553e-06
4.2353e-06
4.26951e-06
4.08352e-06
4.15912e-06
3.97301e-06
4.56818e-06
4.38197e-06
4.94006e-06
5.12508e-06
6.16298e-06
6.20701e-06
6.31768e-06
6.17854e-06
5.77279e-06
5.56343e-06
6.36619e-06
6.19771e-06
6.82115e-06
6.87327e-06
6.91178e-06
6.96536e-06
5.12132e-07
5.12892e-07
6.03439e-07
5.70487e-07
7.09003e-07
6.69945e-07
1.33234e-06
1.33734e-06
9.3422e-07
9.3542e-07
8.43726e-07
8.0056e-07
1.41376e-06
1.4175e-06
1.32694e-06
1.25254e-06
1.77723e-06
1.67786e-06
1.57134e-06
1.56502e-06
2.13304e-06
2.12117e-06
2.7706e-06
2.74111e-06
3.54012e-06
3.55629e-06
5.18335e-06
4.96408e-06
4.94735e-06
4.95378e-06
7.09777e-06
7.08894e-06
7.61568e-06
6.42712e-09
6.70719e-09
4.35061e-09
4.60584e-09
9.12337e-10
9.51438e-10
2.21857e-09
2.19766e-09
1.4038e-09
1.51186e-09
1.79011e-09
1.84445e-09
1.2719e-09
1.24617e-09
1.18974e-09
1.20244e-09
1.42782e-09
1.3575e-09
9.90912e-10
9.32034e-10
4.64034e-09
4.7751e-09
4.00799e-09
3.90965e-09
2.056e-09
1.96756e-09
1.55787e-09
1.66204e-09
1.04933e-09
9.99872e-10
8.20921e-10
8.2483e-10
8.24616e-10
8.12631e-10
7.53981e-10
7.41168e-10
8.45869e-10
8.72729e-10
7.51532e-10
7.62373e-10
9.50764e-10
9.60922e-10
2.3906e-09
2.50961e-09
2.46642e-09
2.05202e-09
2.34179e-09
2.192e-09
1.76037e-09
1.62898e-09
1.36716e-09
1.30565e-09
1.25726e-09
1.19981e-09
1.16047e-09
1.25416e-09
2.12743e-09
2.06823e-09
2.23151e-09
1.20345e-09
1.20052e-09
1.6852e-09
1.64298e-09
7.2848e-09
7.01426e-09
6.98409e-09
6.73894e-09
5.1263e-09
5.35171e-09
7.01552e-09
6.43206e-09
9.68604e-09
9.64054e-09
2.393e-08
2.2797e-08
1.31129e-08
1.31418e-08
4.57923e-07
4.31199e-07
3.77223e-07
3.54622e-07
9.43847e-07
8.91688e-07
8.9292e-07
9.44774e-07
2.01198e-06
1.9518e-06
2.35489e-06
2.31526e-06
2.0662e-06
2.14364e-06
7.87953e-07
7.45616e-07