/*--------------------------------*- C++ -*----------------------------------*\
  =========                 |
  \\      /  F ield         | OpenFOAM: The Open Source CFD Toolbox
   \\    /   O peration     | Website:  https://openfoam.org
    \\  /    A nd           | Version:  7
     \\/     M anipulation  |
\*---------------------------------------------------------------------------*/
FoamFile
{
    version     2.0;
    format      ascii;
    class       volScalarField;
    location    "2040";
    object      T;
}
// * * * * * * * * * * * * * * * * * * * * * * * * * * * * * * * * * * * * * //

dimensions      [0 0 0 1 0 0 0];

internalField   nonuniform List<scalar> 
238806
(
0.0037024
0.00341927
0.011834
0.0176199
0.0151889
0.000353249
0.000172303
0.00247692
0.00269502
0.00727128
0.00675434
0.0148569
0.000262235
0.000428104
0.0232097
0.0216514
0.00846808
0.00773627
0.00156012
0.000660516
0.00181765
0.00221662
0.0172382
0.0131174
0.0176786
0.0107065
0.0101933
0.0121111
0.0138703
0.0185896
0.000270073
0.000199
0.00579253
0.00519715
4.94823e-05
4.59487e-05
0.0963051
0.0984658
0.00653997
0.00593803
0.00616211
0.0175365
0.000223717
0.00022057
0.000778499
0.0016661
0.00919648
0.00827379
0.00461888
0.00400192
0.000568763
0.000298892
0.000285511
0.00046969
0.00336536
0.00318016
0.00769366
0.00776342
0.00698172
0.00867382
0.00790866
0.00959646
0.00572871
0.00523866
0.00492493
0.000313143
0.000851905
0.00290153
0.00392015
0.00267442
0.00246389
0.00458149
0.00513708
0.00372494
0.00430384
0.000771453
0.00112583
9.37395e-05
9.33055e-05
0.00283504
0.00245844
0.00452816
0.00393766
0.00360369
0.00268373
0.00249404
0.00234524
0.0124223
0.0134558
0.012061
0.0119467
0.00723982
0.00675358
0.00366613
0.00511444
0.000119645
0.000115732
0.00619739
0.0071313
0.0190571
0.00172937
0.000928897
0.00176481
0.000504097
0.000165522
0.00272534
0.00307708
0.00328204
0.00377524
0.00488097
0.0054526
0.00234441
0.00186757
0.000270615
0.000506928
0.000152992
0.00016238
0.166278
0.239887
0.21339
0.0223226
0.028331
0.00279071
0.00358283
0.0003663
0.00018104
0.017731
0.0242411
0.0115314
0.0150413
0.00630818
0.00879648
0.0103655
0.0186045
0.00988279
0.00770993
0.00257469
0.00259814
0.0179674
0.0195371
0.0161251
0.0191357
0.00549259
0.00545621
0.00773599
0.00119637
0.00213021
0.00158988
0.000812172
0.0011349
0.00186484
0.000744237
0.00127355
0.0039073
0.00433686
0.00276219
0.00317701
0.00430262
0.00484053
0.00170645
0.00209147
0.000701936
0.00103298
0.000300986
0.000625026
0.000105022
0.000109123
0.00143305
0.00164236
0.0365485
0.0376412
0.00426113
0.00374054
-0.00368376
0.00419248
0.0864343
0.00274659
0.00360508
0.000501899
0.000824676
0.0192813
0.0267674
0.0215656
0.0104036
0.0101866
0.00939272
0.00858685
0.0127898
0.00370257
0.00371169
0.000554367
0.000549455
0.00613326
0.00892128
0.00778648
0.00813443
0.00684099
0.0172495
0.0226755
0.0135133
0.0180798
0.00393043
0.00275762
0.0033442
0.00439831
0.00310931
0.00412029
0.00292093
0.00276711
0.00169067
0.00101384
0.0105282
0.0114256
0.00457275
0.00501283
0.00531661
0.00480492
0.00737341
0.00649558
0.00402353
0.00349024
0.00171794
0.00219654
0.00137698
0.000970287
0.000584429
0.000289158
5.72436e-05
5.51103e-05
0.000491341
0.000469989
0.00320438
0.00317951
0.00176188
0.00171429
0.00423875
0.00432544
0.00231459
0.00244651
0.00859379
0.00917901
0.0310465
0.0355084
0.00641126
0.00639733
0.00284177
0.00355423
0.000953253
0.000552698
0.00141424
0.00129342
0.00392712
0.00375692
0.00726122
0.00809796
0.00901246
0.00944591
0.00744404
0.00759903
0.00523779
0.00528625
0.000550174
0.000553695
0.000119302
0.000131432
0.00303451
0.00318103
0.00652475
0.00597392
0.00880186
0.00958625
0.00604596
0.0135058
0.0119101
0.0162819
0.0140159
0.00281698
0.00396738
0.00150003
0.00253077
0.00194418
0.00105665
0.00185143
0.00203771
3.63856e-05
2.56695e-05
0.000142601
0.000427968
0.00599799
0.00571871
0.00866715
0.00948064
0.00438491
0.00481016
0.00526347
0.00577113
0.00538258
0.00597853
0.00608103
0.00684498
0.00404784
0.00456291
0.000397006
0.00056677
0.00251653
0.00300246
0.000228299
0.000418573
0.000857712
0.00123668
9.38238e-05
6.98136e-05
0.000101621
5.94311e-05
0.000692064
0.000626658
0.0121809
0.0120678
0.000608477
0.000583537
0.00083502
0.000865466
0.00251144
0.00289245
0.00190399
0.00187165
0.00391676
0.00382935
0.201006
0.00404869
0.00357672
0.0216892
0.0178504
0.0118307
0.0120416
0.00101708
0.00108659
0.0166379
0.0169942
0.00623525
0.00774499
0.000374695
0.000194014
0.000888257
0.000527
0.00186491
0.00246843
0.0200323
0.0181432
0.0142433
0.0195315
0.0125374
0.0127287
0.0108026
0.011894
0.000433966
0.000404414
0.000714289
0.000224871
0.000224075
0.000115771
0.00012352
0.00579164
0.00453121
0.00847948
0.00594056
0.0166022
0.0146069
0.0208623
0.00577739
0.00540373
0.0111167
0.00920776
0.020514
0.0151868
0.0119931
0.0143938
0.00444529
0.00578999
0.00802999
0.00560615
0.000368752
0.000926787
0.0038714
0.00511756
0.0036093
0.00476677
0.00303624
0.00318425
0.0034555
0.00366264
0.000170205
0.000491048
0.000241789
0.000710009
3.10657e-05
3.2192e-05
0.000911088
0.00153901
0.00190953
0.00174278
0.010365
0.00963213
0.00248343
0.00212649
0.00421538
0.00462707
0.0050101
0.00548907
0.00621904
0.00685501
0.00760483
0.00841054
0.00381752
0.00430592
0.000603281
0.000418469
0.00235778
0.00281991
0.000457882
0.000247273
0.000522429
0.000607156
9.7605e-05
9.5214e-05
9.88395e-05
6.1751e-05
0.000766655
0.00573379
0.00567833
0.000534077
0.000511745
0.000569796
0.00059299
0.000880111
0.000849823
0.00380657
0.00382921
0.0048875
0.00479325
0.0017652
0.00181763
0.0135312
0.0165463
0.00217611
0.00211655
0.00938856
0.00834653
0.0085704
0.00572808
0.00535309
0.0274817
0.0282814
0.020977
0.0259862
0.00329391
0.00310535
0.00358953
0.0035279
0.0127854
0.0126412
0.112877
0.30691
0.0290365
0.0380772
0.00855938
0.00672256
0.00129332
0.00213796
0.00031979
0.000165556
0.00153098
0.00337463
0.00288954
0.00330801
0.0121535
0.0116355
0.0158096
0.0208007
0.00885908
0.0129885
0.00982929
0.00362365
0.00499836
0.00141229
0.00255127
0.00144747
0.001444
0.000124601
0.000139669
0.000164697
0.000158438
0.000114848
0.000114907
0.00430979
0.00406516
0.00549446
0.00472531
0.0179994
0.00865209
0.00782645
0.010714
0.0203884
0.0201577
0.0165346
0.0207909
0.0111827
0.0107334
0.00510056
0.0054623
0.00519584
0.00717024
0.00284299
0.00396043
0.00176531
0.0017617
0.00180461
0.002929
0.00232723
0.00134566
0.00258316
0.00247946
0.00219324
0.0020685
0.000910014
0.000976266
3.34563e-05
2.8732e-05
0.00142815
0.00228091
3.30437e-05
3.37376e-05
0.000384498
0.000129981
0.00115883
0.000677421
0.00852491
0.00889656
0.0233223
0.0180857
0.00286425
0.00247829
0.00320263
0.00284051
0.00397326
0.00357888
0.00454879
0.00410041
0.00478036
0.00523766
0.00586194
0.00644983
0.00707829
0.0078115
0.00335612
0.00292111
0.00361053
0.00407095
0.000295258
0.0001786
0.00133643
0.00100211
0.0022086
0.00265169
0.00342446
0.00286039
0.000192626
0.000339048
0.000111518
4.03033e-05
0.00123614
0.00108161
0.000957682
0.000853564
5.33277e-05
5.74993e-05
0.000568393
0.00051648
0.048037
0.049225
0.0195388
0.01816
0.000659966
0.000632717
0.00147126
0.00168344
0.000894007
0.000863001
0.00832713
0.00836751
0.00789344
0.00947947
0.00154817
0.0015028
0.00185054
0.00179847
0.0230326
0.0234721
0.0584261
0.0597904
0.00316748
0.00307022
0.00412238
0.00390555
0.011853
0.013478
0.00925243
0.0131831
0.00695402
0.00643365
0.00478785
0.00530447
0.0072938
0.00639753
0.0169779
0.0136049
0.0039106
0.00339538
0.0402093
0.0393142
0.00722128
0.00824655
0.00581331
0.00578355
0.184
0.183708
0.0762327
0.157509
0.311457
0.315309
0.00585297
0.00718269
0.00471077
0.00479306
0.00100817
0.000874215
0.000672427
0.000696726
0.000327282
0.000162661
0.00301654
0.00317944
0.00352882
0.00333597
0.0213107
0.0297856
0.00549147
0.00507216
0.0070847
0.00826129
0.00950833
0.01109
0.0153538
0.00358414
0.0048335
0.00722096
0.00703249
0.00133773
0.00253962
0.00261534
0.00261427
0.000127783
0.000143986
0.000347886
0.000314434
0.000117282
0.00012748
0.00268755
0.00287263
0.00451484
0.00465892
0.0120065
0.0142946
0.0112833
0.0181563
0.00655187
0.00610746
0.00996799
0.0105711
0.00943927
0.00496279
0.00456201
0.00831364
0.00968559
0.0233163
0.0164212
0.00422478
0.00396776
0.00562422
0.00803118
0.000899666
0.000344385
0.00414302
0.00550473
0.00202542
0.00158168
0.00199744
0.00263904
0.00329798
0.00349879
0.00372006
0.000470625
0.000446545
0.00104511
0.00111514
0.000620112
0.000207445
0.00321765
0.0029419
0.000321325
0.000114878
3.20758e-05
3.27112e-05
0.00227294
0.00208638
0.00622716
0.00653466
0.00834345
0.00792542
0.0146182
0.017372
0.00928023
0.0103359
0.00385864
0.00342458
0.00272667
0.00235171
0.00334156
0.00296655
0.00343963
0.00381856
0.00478142
0.00431399
0.00554506
0.00608909
0.00662316
0.00730528
0.00355432
0.00309372
0.000640487
0.000440546
0.00160501
0.00197593
0.00144897
0.00190397
0.00268417
0.00320266
0.000644235
0.00095268
3.80531e-05
0.000100655
0.000727508
0.000540854
0.000877743
0.000261968
0.000290879
6.20095e-05
0.000100886
0.000416284
0.000463299
0.000312331
0.000342348
0.00286076
0.0029637
0.12285
0.112372
0.117196
0.117464
0.00215586
0.00185263
0.000465151
0.000484625
0.000613817
0.000589552
0.000983691
0.000951446
0.00453177
0.00454506
0.00839678
0.00984881
0.00137183
0.00129885
0.00600333
0.00592539
0.00363895
0.00357213
0.00243002
0.00238615
0.00166398
0.00171407
0.015349
0.0151275
0.0209177
0.0204326
0.0243713
0.0248314
0.222234
0.226609
0.0191748
0.0197304
0.00316845
0.00326215
0.227017
0.219191
0.194711
0.00791144
0.00931778
0.00608144
0.00545112
0.00665562
0.000220952
0.000219407
0.00790832
0.00842741
0.00739622
0.00678701
0.00394234
0.00361928
0.00496808
0.00451375
0.0112739
0.0120995
0.0112692
0.0110207
6.92593e-05
8.40066e-05
0.00896043
0.00915488
0.0041212
0.0035935
0.00383009
0.00367166
0.0199241
0.0243992
0.00119424
0.00120571
0.00373206
0.00365744
0.00478791
0.00475721
0.0057597
0.0057411
0.0168654
0.016779
0.00296555
0.0230304
0.013005
0.023444
0.0235548
0.00551119
0.00591897
0.00653694
0.0082178
0.000372884
0.000330067
0.000223477
0.00218062
0.00130486
0.00070168
0.001892
0.00116481
0.00017539
0.000302022
0.00334255
0.00264492
0.00408027
0.0043096
0.0112472
0.014545
0.00461674
0.00433789
0.0095965
0.0080426
0.010709
0.014114
0.00486681
0.00357062
0.00865473
0.0125073
0.000199418
0.000180201
0.00144046
0.00142414
0.000121768
0.000135529
0.000286863
0.000264124
0.00490458
0.0038801
0.00381647
0.00355318
0.0033103
0.00344708
0.0119597
0.00971355
0.0122724
0.0205767
0.0260646
0.021828
0.0059134
0.00553068
0.00736361
0.00689874
0.0138123
0.0172342
0.00665717
0.00710933
0.0125192
0.00997669
0.0118087
0.0117833
0.00279394
0.00379654
0.0055922
0.0080824
0.00273308
0.00165415
0.000134824
0.000331237
0.00192688
0.00233885
0.00249909
0.000170208
0.000166988
1.72473e-05
4.94349e-05
0.00206555
0.00127322
3.4742e-05
3.43166e-05
0.00139893
0.000820804
0.0081988
0.00786104
0.00933417
0.00986216
0.0155026
0.0129865
0.00898729
0.00828111
0.0106756
0.00301382
0.00261493
0.00202811
0.00237655
0.00414562
0.00373414
0.00454862
0.00503588
0.00638088
0.00571229
0.000306867
0.000181382
0.00142749
0.0017712
0.000940869
0.00125354
0.00114888
0.00153183
0.00204772
0.00157655
0.000595808
0.000882923
0.00011379
5.29219e-05
0.000124277
3.48366e-05
3.71986e-05
0.000111684
0.000913271
0.00133923
0.000313254
6.69226e-05
0.000105003
0.000217733
0.0002378
0.000173475
0.000186115
0.0128121
0.0154739
0.124059
0.113426
0.0142517
0.012741
0.0169818
0.0123079
0.00247076
0.00243207
0.000499556
0.0004788
0.000644329
0.00061902
0.00125819
0.00129441
0.000832645
0.000805269
0.0121493
0.00946477
0.00856679
0.0100328
0.00125939
0.00118761
0.00581452
0.00591946
0.00928322
0.0108605
0.00385796
0.00393792
0.00406993
0.00399779
0.00279155
0.00273918
0.00238182
0.00243376
0.00200523
0.00196427
0.00174763
0.00169774
0.00449909
0.00523473
0.0169544
0.0138433
0.0321526
0.0315231
0.196165
0.200333
0.0139336
0.0136391
0.0115566
0.0116975
0.00330204
0.00320854
0.00460121
0.00437027
0.00462526
0.00503566
0.0036585
0.00375625
0.00313021
0.00996459
0.011135
0.0101903
0.0120313
0.0132692
0.012598
0.00040128
0.000418341
0.00322849
0.00304751
0.00773346
0.00712445
0.00627952
0.00584399
0.00513925
0.00574725
0.0173317
0.0166318
0.0126979
0.0156888
0.000794179
0.000841475
0.00014669
9.94744e-05
0.0331371
0.0342593
0.00296466
0.00276172
0.00366199
0.00419319
0.00322491
0.00303277
0.0184283
0.0158587
0.011168
0.0137088
0.000559928
0.000599951
0.00323431
0.00278689
0.00342704
0.0030972
0.00108512
0.00112864
0.00386021
0.00392302
0.0064322
0.00645916
0.0106829
0.0106512
0.180701
0.17464
0.0126574
0.0126103
0.0178642
0.0217919
0.00457942
0.00441956
0.000212111
0.000240162
0.00123596
0.0020175
0.000609241
0.000640795
0.000307898
0.000172668
0.00460152
0.00489155
0.00270274
0.00204822
0.0158636
0.0126112
0.015011
0.0124169
0.00967737
0.00557681
0.00519386
0.00724123
0.00655204
0.0160827
0.0122502
0.00971229
0.0118856
0.0085054
0.0128663
0.00693874
0.000222774
0.000222289
0.00151691
0.00260447
0.00212722
0.00194178
0.000230198
0.000150711
0.000172875
0.000183672
0.00487468
0.00631142
0.00729888
0.00605912
0.00662179
0.00841627
0.00915424
0.0101128
0.00839071
0.0107065
0.00980396
0.0113848
0.00514796
0.00456246
0.00481233
0.00531635
0.00496015
0.00660761
0.00616364
0.0111521
0.0132358
0.00862222
0.0105472
0.0139438
0.0009776
0.000420659
0.0039034
0.00283619
0.000104734
1.45311e-06
0.000394155
0.000154304
0.000645271
0.00112338
0.00447664
0.00476803
0.00266911
0.00285724
0.00048024
0.000158836
4.13931e-05
2.18062e-05
0.000121158
0.000349732
0.00699817
0.00671535
0.0086781
0.00812993
0.00906137
0.00859288
0.0216624
0.0307815
0.00804029
0.00752399
0.0109747
0.0124358
0.0032568
0.00366746
0.00259998
0.00223443
0.00562768
0.005082
0.000179421
0.000272277
0.000785508
0.0010491
0.00142886
0.00107099
0.00206869
0.00249605
0.000360352
0.000201468
0.000554989
0.000822257
5.05663e-05
0.000118488
3.54843e-05
0.000114665
0.000113686
4.37642e-05
0.000980316
0.00146026
6.68732e-05
9.49254e-05
7.23845e-05
0.000110455
0.000376805
0.000200777
0.0150917
0.0127189
0.0135744
0.0128948
0.0125905
0.0124459
0.0119457
0.0121246
0.00475049
0.00418425
0.00156833
0.00133689
0.000458734
0.000446363
0.000504789
0.000525697
0.000565979
0.000547362
0.00111783
0.00108344
0.000887353
0.000856936
0.00637944
0.00638124
0.00941839
0.0121407
0.00344366
0.00351015
0.00105941
0.0010288
0.00116755
0.00113638
0.00147017
0.0114404
0.0113001
0.0111519
0.0109991
0.00785805
0.00337493
0.00344039
0.00462823
0.0045499
0.0035074
0.00307114
0.00145539
0.00142363
0.00147004
0.00151746
0.0032974
0.00323607
0.00219149
0.00215043
0.00179291
0.00174369
0.0127364
0.0125968
0.00458971
0.00400152
0.00733461
0.00754882
0.0217572
0.02193
0.0308981
0.0239175
0.189205
0.19156
0.13982
0.142454
0.0304267
0.0309729
0.00990735
0.0100196
0.00294784
0.00337355
0.0033538
0.00319875
0.00462907
0.00487761
0.00401596
0.00424142
0.00525715
0.00535588
0.158752
0.234681
0.00525403
0.00443646
0.0103823
0.0089137
0.00775497
0.00745708
0.0120815
0.0123825
0.0100116
0.00831052
0.0107484
0.000455078
0.000307359
0.00163542
0.00152953
0.00881922
0.00923913
0.0081672
0.00617479
0.00671253
0.00647241
0.0071625
0.0163164
0.011843
0.0101058
0.0120962
0.0133183
0.0184684
0.0185532
0.00559735
0.00477622
0.000133207
0.000120897
0.00342677
0.00343802
0.00626471
0.00649535
0.00343787
0.00349834
0.0120525
0.0112059
0.00373319
0.00426809
0.0181507
0.0153868
0.0139659
0.0113834
0.000310869
0.000317614
0.000674752
0.000718884
0.00278555
0.00323147
0.140184
0.139262
0.109058
0.145204
0.0095112
0.0111393
0.00399305
0.00407112
0.00520847
0.00518855
0.0107069
0.0107595
0.00939981
0.00935122
0.183563
0.1825
0.0148015
0.0153217
0.003724
0.00352061
0.00548286
0.00676535
0.00184366
0.00170603
0.000673131
0.000604156
0.00109181
0.0017686
0.000313741
0.00016933
0.00516529
0.00414984
0.0028585
0.00219828
0.00874405
0.00777436
0.00871646
0.00615079
0.00698992
0.00637262
0.00490888
0.00637761
0.00582918
0.00873898
0.00821586
0.00687292
0.00680352
0.000542363
0.000538476
0.000207875
0.000147622
0.000153917
0.000245451
0.00025213
0.000227172
0.00218729
0.00245011
0.00560636
0.00522167
0.00771478
0.00826628
0.00709637
0.00690771
0.00638109
0.00697681
0.00725602
0.00846963
0.00721551
0.00768656
0.0125629
0.0169436
0.0201406
0.0164435
0.0196605
0.00479385
0.00402128
0.0043576
0.00637056
0.00571297
0.00814901
0.00769842
0.00857933
0.0113266
0.00984014
0.0150043
0.0114171
0.00915514
0.0111515
0.000951395
0.000393898
6.63703e-05
4.69875e-05
1.50969e-05
7.39699e-06
0.000137229
0.000118197
0.000453343
0.000421271
0.000161647
0.00129701
0.000728648
0.00391317
0.00419449
0.0017094
0.0015844
0.000180417
0.000544292
0.00646299
0.00620021
0.0075678
0.00820479
0.00768869
0.00731867
0.0119166
0.0103816
0.0182912
0.0172375
0.0222462
0.0313596
0.0128164
0.0157053
0.0143962
0.0099089
0.00310473
0.00349569
0.000277031
0.000177024
0.00110984
0.000833157
0.00151185
0.001869
0.00164465
0.00123625
0.00193868
0.00235158
0.000386457
0.000213161
4.01236e-05
9.643e-05
3.65665e-05
0.000106816
0.00106114
0.00159248
6.4205e-05
9.66329e-05
0.00040203
0.000393712
0.00919414
0.0121675
0.0100779
0.0100856
0.0760458
0.0805586
0.0928048
0.0884442
0.0325096
0.0287012
0.00318721
0.00365464
0.00223597
0.00227548
0.00192437
0.00219507
0.00129547
0.00125768
0.000524092
0.000502032
0.000743532
0.000715437
0.000543123
0.000520982
0.000594314
0.00128539
0.00124941
0.00115232
0.000616958
0.000641679
0.000747886
0.000776225
0.131815
0.133134
0.00325758
0.00323043
0.00351709
0.00299028
0.107051
0.115233
0.0054657
0.0048161
0.00331344
0.00324979
0.00221993
0.00253033
0.0011307
0.00109966
0.00128333
0.00125219
0.00723547
0.00738287
0.00932462
0.0077569
0.00583879
0.00515712
0.0042222
0.00430816
0.00312931
0.00318862
0.00132408
0.00129299
0.00155084
0.00159726
0.00284031
0.00289544
0.00204949
0.00223576
0.00156573
0.00161454
0.00194694
0.00189432
0.00585951
0.00593021
0.00809325
0.00794517
0.00418144
0.00480612
0.00526602
0.00456722
0.00466524
0.00786503
0.00768961
0.0269917
0.0262239
0.0578661
0.0620768
0.175386
0.171956
0.181512
0.178563
0.217347
0.214837
0.0577478
0.138507
0.0227211
0.0223219
0.0238787
0.0245598
0.00222355
0.00216316
0.00378148
0.00388309
0.00400769
0.0042183
0.00400077
0.0040766
0.0042426
0.00448569
0.00449817
0.00473755
0.00613413
0.00576822
0.0103348
0.00914017
0.230759
0.224753
0.0109478
0.0125976
0.00856491
0.00800524
0.00744394
0.00879086
0.00782563
0.0105728
0.00957748
0.0112847
0.0139883
0.0068788
0.00371159
0.00353258
0.00130276
0.00180501
0.00169812
0.000938309
0.00287903
0.00218281
0.00748552
0.00812001
0.0038814
0.00347816
0.00597964
0.00545685
0.00754195
0.00713483
0.0062138
0.00981018
0.00869454
0.00968962
0.015543
0.00920112
0.00797812
0.00934139
0.0879826
0.0826377
0.00103613
0.00109411
0.00459714
0.00452997
0.00212724
0.00211527
0.0116946
0.0114688
0.00698378
0.00723096
0.00370395
0.00359976
0.0385071
0.0900016
0.0113942
0.0121854
0.00315734
0.00296216
0.00358955
0.00341638
0.0138517
0.0135716
0.0219235
0.0223363
0.0120814
0.014781
0.00759486
0.00780143
0.000396429
0.000422507
0.00076878
0.000823133
0.00183855
0.00181543
0.00103848
0.00105231
0.127425
0.133054
0.140172
0.0110154
0.00943226
0.00120904
0.00117482
0.00497114
0.00491476
0.00473121
0.00470934
0.00812708
0.00813273
0.182383
0.183081
0.00799193
0.00785024
0.0124495
0.0124228
0.022996
0.0272256
0.0361591
0.0523914
0.00300568
0.00280785
0.00508718
0.00635344
0.00113664
0.00195211
0.000504244
0.000441368
0.0010208
0.001648
0.000338354
0.00016415
0.00393872
0.00372984
0.0244615
0.0342067
0.0106172
0.0059363
0.00491737
0.00358907
0.000148677
0.000217777
0.000192287
0.00328179
0.00299585
0.00771708
0.00688386
0.0128927
0.0159039
0.0168121
0.00605446
0.00531462
0.00611113
0.00911284
0.0153069
0.0173457
0.0239346
0.0264799
0.033112
0.00508987
0.00424627
0.0068928
0.00753033
0.00797392
0.00715343
0.00927179
0.007429
0.0070249
0.0138328
0.00827779
0.00262387
0.00179474
0.00230078
0.00490661
0.0065407
2.52674e-06
8.1075e-05
0.000171458
0.000702572
1.22298e-05
0.000154372
0.000390029
9.58421e-05
0.0014744
0.000848291
0.000365215
0.000145441
0.0032943
0.00309879
0.00667105
0.00631453
0.00547113
0.00525072
0.00596609
0.00646341
0.00699377
0.00884865
0.0094779
0.0113924
0.0127157
0.0477081
0.0388678
0.0142083
0.00772922
0.0085097
0.0117031
0.000768433
0.000519869
0.000285585
0.000177164
0.00135252
0.00168332
0.00176901
0.00133603
4.28169e-05
9.41251e-05
0.000567823
0.000283689
0.00738838
0.00746747
0.000265322
0.000271503
0.00315094
0.00307614
0.000751689
0.000731561
0.00654466
0.0066328
0.11712
0.0889252
0.0609005
0.066251
0.015937
0.0150437
0.0843928
0.0103868
0.0102482
0.00352057
0.00306518
0.00409059
0.00416536
0.0063672
0.0062651
0.00281923
0.00278084
0.0013722
0.00160998
0.000613094
0.000684097
0.000439262
0.000420359
0.000480702
0.000633977
0.000687584
0.000570244
0.000546826
0.00148487
0.00144687
0.000910722
0.00101616
0.00104962
0.00101659
0.000802953
0.000773917
0.0131063
0.0132758
0.003854
0.00388124
0.00560617
0.00566103
0.00411632
0.00929414
0.0121372
0.00721022
0.00734293
0.00267422
0.0030696
0.00386481
0.00439806
0.00102489
0.000994592
0.00164158
0.00148162
0.00120752
0.00117061
0.00124379
0.00121257
0.00132312
0.0119467
0.0118223
0.00968941
0.00991866
0.00524009
0.00532205
0.00514725
0.00501313
0.00414498
0.00470887
0.00176356
0.00172163
0.00140987
0.0013786
0.00149659
0.00262922
0.00268361
0.00273567
0.00268652
0.00247654
0.00164841
0.00159952
0.00211189
0.00206078
0.00184302
0.0106886
0.0130623
0.00955367
0.0093786
0.00615835
0.00702542
0.00551799
0.00538258
0.0152986
0.0155361
0.115659
0.179317
0.0256699
0.033726
0.0320857
0.0243544
0.0240365
0.0222423
0.022619
0.0302667
0.0296213
0.168878
0.0825002
0.208206
0.206576
0.136929
0.135504
0.220029
0.194078
0.0292996
0.0295068
0.0265347
0.0260604
0.0103713
0.0105895
0.00273968
0.00280079
0.00327581
0.00332499
0.00390626
0.00386201
0.00368515
0.00365265
0.0026247
0.00255807
0.00329369
0.0034605
0.0034905
0.00353158
0.0199302
0.0196262
0.00476274
0.00502153
0.0045159
0.00492662
0.00538661
0.00508355
0.0119741
0.0118071
0.205001
0.10699
0.157511
0.00342569
0.00334801
0.000395992
0.000373431
0.0059878
0.00537593
0.00558656
0.00698249
0.0136843
0.0167554
0.00707161
0.0136487
0.0132157
0.0132074
0.000401311
0.00041533
0.000329535
0.00049784
0.000829266
0.000777732
0.000216397
0.000112465
0.000861814
0.000749958
0.00333045
0.00253072
0.00958746
0.012831
0.00492203
0.00452814
0.00373762
0.00337941
0.00822803
0.00735688
0.00664364
0.00564713
0.00635935
0.00543818
0.00661114
0.00701397
0.00979065
0.00815488
0.010565
0.000269979
0.000389676
8.37962e-05
0.0114879
0.00760551
0.00669266
4.19438e-05
5.5229e-05
0.00311873
0.00260398
0.00172717
0.00211902
0.0103473
0.0122602
0.00490536
0.00477777
0.00939463
0.00921124
0.0082227
0.008504
0.00500389
0.00512199
0.00353767
0.00364021
0.00414151
0.00350953
0.0115829
0.0123239
0.00806943
0.00983159
0.00309118
0.00289327
0.00516045
0.00607979
0.00374776
0.00358422
0.00613652
0.00616833
0.021649
0.0217742
0.17549
0.175946
0.0190544
0.0244789
0.0196471
0.0247844
0.0277363
0.0290925
0.00990056
0.0103643
0.000354421
0.00037329
0.000953485
0.000896251
0.00153593
0.00155785
0.00122488
0.00121112
0.00423223
0.00384554
0.00573942
0.00647879
0.00820157
0.00719962
0.000449449
0.000456569
0.00571629
0.00591313
0.00430935
0.00428722
0.00523365
0.00526368
0.00926316
0.00928701
0.183672
0.18381
0.00983157
0.00999351
0.00839647
0.00832981
0.0125433
0.0124926
0.0294594
0.0317071
0.00365237
0.00353804
0.00351503
0.00285562
0.00327209
0.00471946
0.00440719
0.00123306
0.00204106
0.000579868
0.0180483
0.00352957
0.00373236
0.000112132
9.35879e-05
0.000100777
0.0041934
0.00529986
0.00360897
0.00386692
0.00747658
0.0102139
0.0156166
0.00758931
0.0132261
0.0318592
0.0438832
0.01035
0.0125564
0.0252694
0.00387733
0.00367194
0.00874932
0.00973908
0.00821736
0.00744495
0.00920786
0.0101013
0.0142591
0.0115699
0.0117205
0.0026322
0.00179145
0.00466142
0.00612018
1.08979e-06
9.15324e-05
0.00064796
0.000174624
0.000283189
6.09084e-05
3.52108e-06
0.000119909
0.000787797
0.00136996
0.00675844
0.00709242
0.0050529
0.00549725
0.00726407
0.00757101
0.00939294
0.0103067
0.025944
0.0189744
0.00707256
0.00048956
0.000720923
0.000321418
0.000186042
0.00117818
0.000885127
4.75797e-05
0.00012024
0.00648495
0.006562
0.000316097
0.00040922
0.000301767
0.000284088
0.00214704
0.00252201
0.0113291
0.013081
0.00162858
0.00160046
0.0123411
0.0123123
0.00276528
0.00276382
0.00839028
0.00843915
0.012488
0.0132081
0.0734019
0.070065
0.116579
0.0712682
0.0805434
0.076911
0.0108564
0.0110169
0.00345534
0.00300575
0.00358692
0.00312565
0.0069491
0.00682236
0.00361599
0.0035699
0.00319979
0.00315879
0.00187001
0.00182729
0.000891264
0.000937647
0.00114547
0.000977373
0.000513261
0.000557017
0.000410656
0.000428211
0.000660003
0.000686503
0.00132158
0.00152332
0.000741095
0.000713532
0.000949924
0.000982077
0.000838953
0.000809272
0.089576
0.0919549
0.0167231
0.0168685
0.00456638
0.00459413
0.00355119
0.00301588
0.00344557
0.0029296
0.0121344
0.00933288
0.00941063
0.00965537
0.00743576
0.00871975
0.00300976
0.00261935
0.00424148
0.0037235
0.00144421
0.00129293
0.00226707
0.00258221
0.00155996
0.00172305
0.00126111
0.00133378
0.00113444
0.00109467
0.00137679
0.00145014
0.00120521
0.00117399
0.00470123
0.00460376
0.0105549
0.010752
0.00810567
0.00831336
0.0103875
0.00890022
0.00324893
0.00331118
0.00440299
0.00450436
0.00300585
0.00295168
0.00193193
0.00188944
0.00136624
0.00133513
0.00219389
0.00224494
0.00311815
0.00306133
0.00196253
0.00191535
0.00169492
0.00164631
0.00201098
0.00190773
0.00706715
0.0071517
0.0100706
0.0101249
0.0082437
0.00972134
0.00647833
0.00730981
0.00469172
0.00408805
0.00429465
0.004393
0.00610253
0.00624969
0.0102772
0.0100411
0.00994552
0.009719
0.0174062
0.0141814
0.0249764
0.0246612
0.196882
0.194412
0.0289586
0.0281986
0.0809292
0.0794805
0.0842665
0.086258
0.0287376
0.0296497
0.056933
0.0561921
0.0215284
0.021116
0.018229
0.0178985
0.0128174
0.0132188
0.00934116
0.00968018
0.00373017
0.00425682
0.0029253
0.00286607
0.00289958
0.00285094
0.00386841
0.00396292
0.00327752
0.00336275
0.00269435
0.00261777
0.0033907
0.00356732
0.00328468
0.00320909
0.00368334
0.00358567
0.00374515
0.00415578
0.00436257
0.00412842
0.00453763
0.00454371
0.00524141
0.00555139
0.00633589
0.00616941
0.0271634
0.0504419
0.0267153
0.0221194
0.107497
0.00327935
0.00366266
0.0240405
0.0281159
0.0025124
0.00232831
0.0152353
0.018271
0.00399142
0.00463953
0.00665212
0.00617182
0.00641819
0.00692141
0.00692887
0.00606035
0.0104541
0.00906243
0.0127592
0.0131713
0.00688019
0.00659861
0.00100328
0.000758243
0.00283617
0.00240712
0.00078887
0.000719113
0.000180701
0.000182347
0.00011302
0.00020655
0.00175856
0.00100614
0.000410421
0.000342046
0.00512006
0.00725598
0.00247796
0.00346036
0.00981333
0.0126858
0.00407727
0.00424332
0.00394692
0.00328522
0.00650455
0.00589206
0.00562053
0.00485312
0.00464824
0.00494321
0.00545252
0.00607426
0.0125601
0.0125212
0.016019
0.017965
0.020747
0.0105091
0.0132024
5.98694e-05
-5.82126e-05
0.0110295
0.0112602
0.0063304
0.00659637
0.000745462
0.000984298
0.000216282
0.000207825
0.000193054
0.000150073
0.0485311
0.0540734
0.000942564
0.00120325
0.0101784
0.0100179
0.00250411
0.00242927
0.00360165
0.00351319
0.019525
0.0201648
0.0193743
0.0189979
0.00614756
0.00685818
0.00524274
0.00536625
0.00276378
0.00269232
0.0141687
0.0156403
0.00757585
0.00916828
0.00436619
0.00370663
0.0182005
0.0169645
0.0122611
0.0120307
0.00345961
0.00397936
0.0030273
0.00282657
0.008914
0.0109135
0.00598433
0.00507678
0.00366789
0.00349921
0.00446071
0.00435121
0.017247
0.014455
0.0409245
0.0420145
0.00470188
0.00438633
0.0187281
0.0240681
0.0193682
0.0247693
0.0181096
0.0063441
0.00648179
0.009605
0.0100492
0.00052366
0.000492558
0.00238716
0.00202928
0.00139398
0.00140413
0.000673833
0.00066139
0.00305334
0.00308124
0.00350844
0.00316952
0.00347101
0.0031329
0.00459408
0.00512474
0.00837335
0.00729007
0.0852588
0.159759
0.012936
0.0171657
0.000392666
0.000401732
0.00624562
0.00644692
0.00337656
0.00333597
0.00594544
0.00600651
0.00486599
0.00482386
0.00718747
0.00717988
0.0167362
0.0168498
0.0165668
0.0165473
0.0326299
0.0340256
0.00866853
0.00879225
0.00952729
0.00945792
0.0169471
0.0169958
0.0719821
0.0582226
0.0265177
0.00396514
0.00423965
0.00300041
0.00285261
0.00177192
0.00161694
0.000103613
9.93664e-05
8.45154e-05
0.00810896
0.00684627
0.00658003
0.00509683
0.004345
0.00979632
0.0590663
0.0487756
0.023497
0.0200461
0.01888
0.0230117
0.00544965
0.00576339
0.006532
0.00610784
0.0130591
0.00778326
0.000496805
0.00114551
0.00331847
0.00307096
0.003674
0.00355358
0.000520403
0.000141742
6.08214e-06
7.28947e-05
7.65337e-05
0.00033315
0.00688139
0.00727384
0.00571269
0.00595459
0.0115455
0.0137583
0.000463761
0.000678951
0.00596273
0.00588646
0.00186193
0.00193985
0.000583971
0.000573114
0.00262408
0.00258903
0.000384254
0.00037738
0.00189279
0.00221408
0.138297
0.115626
0.0523273
0.0539326
0.00279463
0.00283949
0.00157438
0.000817337
0.000832927
0.00916683
0.0121853
0.00814769
0.00818028
0.00485392
0.00485271
0.00829593
0.00709775
0.00914355
0.0132556
0.0120715
0.0133654
0.0129886
0.0130508
0.115561
0.11405
0.00999606
0.00998293
0.0066977
0.00660942
0.0033914
0.00294749
0.00401732
0.00600008
0.00610958
0.00594448
0.00604857
0.00407617
0.00402382
0.00330041
0.00327242
0.00145967
0.00175057
0.00215585
0.00211408
0.00105636
0.00109893
0.000749135
0.000725987
0.000606228
0.000580899
0.00045996
0.000439775
0.00154934
0.00176742
0.00160206
0.00156229
0.00108236
0.00104905
0.000890016
0.000859738
0.000696827
0.000670262
0.000693341
0.000720249
0.000952211
0.00092084
0.000869239
0.0809748
0.0794401
0.0390179
0.0384593
0.0134515
0.0136324
0.005099
0.00583126
0.00560952
0.00359367
0.00304504
0.00346659
0.00294813
0.0060696
0.00702903
0.00979369
0.0106225
0.0110693
0.013984
0.0100768
0.00971437
0.00657277
0.00669528
0.00490294
0.00556421
0.0039372
0.00447844
0.00379356
0.00431909
0.000958045
0.000928528
0.00231439
0.00263426
0.00152061