/*--------------------------------*- C++ -*----------------------------------*\
  =========                 |
  \\      /  F ield         | OpenFOAM: The Open Source CFD Toolbox
   \\    /   O peration     | Website:  https://openfoam.org
    \\  /    A nd           | Version:  7
     \\/     M anipulation  |
\*---------------------------------------------------------------------------*/
FoamFile
{
    version     2.0;
    format      ascii;
    class       volScalarField;
    location    "240";
    object      T;
}
// * * * * * * * * * * * * * * * * * * * * * * * * * * * * * * * * * * * * * //

dimensions      [0 0 0 1 0 0 0];

internalField   nonuniform List<scalar> 
238806
(
2.75873e-11
3.13852e-11
-1.71018e-13
-2.88197e-14
-7.17199e-14
1.61365e-11
7.80155e-12
4.96951e-11
4.91277e-11
-2.20896e-13
3.83121e-13
-1.46186e-13
3.09246e-12
3.56557e-12
1.89353e-16
9.73331e-16
-4.05421e-13
-1.9207e-13
1.3211e-10
9.26096e-11
1.12246e-11
9.94446e-12
-4.83279e-15
-1.65679e-14
-2.0875e-15
-3.03378e-13
-3.26662e-13
-1.57546e-13
-2.1239e-13
8.25792e-15
5.1299e-11
4.35487e-11
1.97671e-12
4.13644e-12
2.58265e-12
2.98145e-12
-1.08527e-51
-3.97893e-52
4.56954e-13
2.30935e-12
1.4955e-12
-3.81443e-15
1.76387e-11
1.8057e-11
9.58582e-11
1.26493e-10
-1.17093e-13
-1.43705e-13
7.33908e-12
1.18668e-11
2.41518e-11
1.6736e-11
3.8408e-12
4.39892e-12
3.07424e-34
-1.26209e-32
-3.15636e-13
-3.67126e-13
7.98768e-14
-5.268e-13
-3.66154e-13
-6.34755e-13
1.22822e-12
2.11805e-12
2.93736e-12
5.41658e-11
9.54215e-11
4.81682e-11
2.54439e-11
3.56822e-11
3.53939e-11
5.16551e-12
2.9062e-12
1.21867e-11
7.96082e-12
2.15657e-11
2.42304e-11
3.29673e-12
3.86597e-12
-5.59192e-22
-7.68453e-22
1.18866e-11
2.6347e-11
3.00548e-11
4.41553e-11
2.43444e-11
2.2863e-11
-6.69359e-14
-5.30787e-14
-1.30462e-13
-1.12287e-13
9.27579e-14
6.36271e-13
3.96241e-11
1.21045e-11
2.12503e-12
2.32058e-12
2.9275e-12
3.2003e-13
-2.37486e-14
1.20493e-10
6.75e-11
6.5407e-11
4.75122e-11
2.50861e-11
2.65764e-12
2.01036e-12
1.16257e-11
8.27291e-12
4.7363e-12
2.48524e-12
2.80587e-11
3.11879e-11
1.40398e-11
2.0231e-11
2.4511e-12
3.0564e-12
-1.77219e-53
-4.89499e-55
-2.66505e-54
-3.53708e-16
-4.62101e-16
3.76339e-11
2.6333e-11
1.78613e-11
8.90113e-12
3.90102e-16
6.22689e-18
-1.0474e-13
-2.26003e-14
1.48437e-12
-3.0628e-13
-1.90327e-13
3.96149e-15
-5.90373e-13
-4.73324e-13
5.74683e-11
6.01797e-11
5.8878e-16
3.86037e-16
-3.67131e-15
-8.03292e-16
7.98907e-12
1.88689e-11
-1.31226e-12
7.88152e-11
6.93597e-11
6.23743e-11
6.14846e-11
5.02318e-11
4.62619e-11
3.29718e-11
3.42882e-11
1.95131e-12
1.23225e-12
9.24006e-12
7.11912e-12
5.4153e-12
3.2249e-12
9.62695e-12
8.65292e-12
1.82555e-11
2.08841e-11
2.05488e-11
2.57731e-11
4.89652e-12
5.89452e-12
-1.36455e-20
-1.2683e-20
-5.2485e-51
-2.26146e-51
1.4408e-11
2.7706e-11
-2.45129e-20
-2.11313e-20
-9.05497e-21
4.06801e-11
2.80076e-11
1.26606e-11
1.6321e-11
7.72721e-16
-1.95322e-17
4.15674e-15
-2.25837e-13
-2.64492e-13
-3.41878e-13
-1.14838e-12
-6.65953e-13
4.09762e-11
4.31253e-11
4.67582e-11
4.84992e-11
7.32965e-13
-6.37121e-13
-4.6019e-13
-8.21185e-13
1.09193e-12
-4.87006e-14
7.70828e-15
-3.53569e-13
2.45289e-14
7.71396e-11
1.21449e-10
4.29358e-11
1.83345e-11
4.62455e-11
2.26182e-11
4.14155e-11
3.90946e-11
4.37747e-11
4.57546e-11
-8.37834e-16
-3.36716e-16
6.98144e-13
3.81867e-13
1.1037e-12
2.07731e-12
6.85212e-15
6.62303e-13
8.25748e-12
1.2059e-11
2.8068e-11
2.57761e-11
3.15454e-11
2.98322e-11
2.27213e-11
1.81086e-11
3.22408e-12
3.78772e-12
1.04134e-17
1.68313e-17
6.94684e-28
1.1559e-27
2.97175e-27
-7.61662e-27
1.80647e-37
7.81281e-38
1.75329e-10
1.86238e-10
-3.75522e-12
-3.99498e-12
-1.49468e-16
-7.71411e-17
-1.17788e-19
-1.92804e-19
3.47637e-11
2.5276e-11
2.09963e-11
1.63915e-11
2.04557e-11
1.81993e-11
6.95967e-12
7.0042e-12
-1.49152e-14
-1.22898e-13
-4.55527e-13
-5.8375e-13
-9.50982e-13
-1.23148e-12
1.11381e-11
1.13073e-11
4.24691e-11
4.4729e-11
1.53352e-12
1.5787e-12
1.81699e-11
1.81782e-11
3.0725e-13
9.47487e-13
-3.08764e-13
-2.3048e-13
5.08174e-12
-1.53511e-13
-6.61302e-13
-2.34395e-13
-4.45708e-13
1.13485e-10
7.10934e-11
8.81605e-11
6.93799e-11
6.78096e-11
7.33319e-11
6.87259e-11
7.42398e-11
1.50207e-11
1.10934e-11
2.27122e-11
3.45337e-11
1.46224e-13
1.71197e-13
-7.19689e-14
-7.3268e-14
6.613e-13
3.74512e-13
6.6904e-13
3.07127e-13
1.70182e-12
7.48512e-13
1.04427e-12
2.54758e-13
5.47729e-12
3.42078e-12
3.41555e-12
4.01989e-12
2.01931e-11
1.61917e-11
9.86578e-12
1.42166e-11
2.53862e-11
2.78322e-11
1.78316e-12
1.31083e-12
4.04735e-12
2.72559e-12
9.4658e-12
7.90169e-12
-1.07526e-26
-1.59062e-26
7.08212e-19
1.28886e-18
-1.52126e-21
-9.94191e-22
-4.3828e-22
-3.15928e-22
8.58004e-28
6.69288e-28
1.1374e-37
2.67649e-37
-1.79628e-54
1.59605e-11
2.78812e-11
8.02654e-15
1.73724e-14
1.60984e-34
3.87794e-35
4.31429e-13
5.34501e-13
8.16751e-20
4.74525e-20
2.94191e-12
-4.63038e-13
1.93681e-11
1.02648e-11
1.85767e-11
1.44474e-11
1.77961e-11
1.53692e-11
1.12514e-15
-7.00817e-16
-2.23084e-14
2.49515e-16
-4.10911e-13
-3.41796e-13
-4.24429e-13
-2.26633e-13
3.02122e-11
2.71655e-11
3.96255e-11
1.69579e-11
1.60851e-11
1.99694e-12
1.93476e-12
1.97581e-12
6.43453e-12
-6.35821e-13
1.38016e-12
-1.3668e-14
-4.30619e-14
4.25933e-16
9.23072e-12
1.15043e-11
-5.28776e-13
-8.66641e-13
8.13391e-14
-3.30887e-14
-7.56831e-13
-1.56158e-13
3.46592e-11
1.23291e-11
-2.50383e-12
1.91345e-11
5.43677e-11
8.95179e-11
3.2573e-11
7.97941e-12
3.80232e-11
1.2334e-11
2.45921e-11
2.60535e-11
2.88814e-11
2.90242e-11
2.35895e-11
4.34233e-11
3.93797e-11
5.54981e-11
9.50845e-12
1.19298e-11
4.13219e-11
4.08234e-11
3.08812e-11
2.87213e-11
-2.12548e-15
-3.01159e-15
3.90586e-12
4.69399e-12
6.10077e-13
3.5542e-13
7.06867e-13
3.49982e-13
3.74674e-13
8.91214e-14
-4.95869e-14
-1.07588e-13
5.3773e-12
3.49623e-12
4.96712e-12
4.17322e-12
1.84517e-11
1.51588e-11
1.69606e-11
1.17709e-11
1.23663e-11
1.48985e-11
2.39552e-12
2.81065e-12
3.32767e-12
2.29011e-12
1.12501e-11
-4.95192e-22
-8.10796e-22
1.32206e-17
2.13541e-17
6.42153e-20
2.13675e-20
-3.40926e-21
3.02781e-20
6.85488e-28
4.00437e-28
9.9934e-27
1.33367e-26
1.4509e-27
1.03254e-27
-4.24746e-45
-2.16721e-45
4.03138e-29
7.1533e-29
-3.97356e-12
-2.74064e-12
-2.77786e-12
5.77931e-14
3.81453e-13
-9.96573e-17
6.87746e-16
7.47645e-15
1.77722e-15
-1.68093e-32
-4.56552e-32
3.1635e-14
2.53095e-14
1.27216e-18
1.09326e-18
-3.525e-21
6.0505e-22
-2.15273e-17
5.67175e-19
-9.1629e-13
1.62778e-12
3.48695e-11
3.5019e-11
1.15285e-11
5.66133e-12
2.281e-11
1.03217e-11
1.20642e-11
9.71143e-12
-6.81372e-14
-4.74639e-14
-2.16137e-14
2.42382e-15
-1.26493e-12
-1.3177e-12
-1.15663e-12
3.83015e-11
1.29235e-11
5.925e-11
5.46447e-11
6.90593e-11
7.20266e-11
1.17072e-12
1.2615e-12
2.98544e-12
2.53918e-12
2.60435e-12
2.27831e-12
1.02113e-11
1.09873e-11
1.39198e-12
3.04491e-12
-1.99623e-15
-5.14224e-13
-2.24069e-13
-1.32342e-13
1.30607e-15
1.55049e-15
-2.89495e-14
3.39814e-15
-3.67846e-13
-1.10724e-12
1.88986e-11
1.51956e-11
2.33943e-11
1.81423e-12
1.06727e-10
6.70984e-11
1.08305e-10
1.14383e-10
9.51273e-11
6.58362e-11
6.99097e-11
8.37883e-11
3.29095e-11
3.03147e-11
5.00986e-11
4.57089e-11
5.04491e-11
5.66784e-11
1.33426e-11
1.03131e-11
5.8684e-11
4.90359e-11
9.64994e-12
7.88208e-12
3.03761e-11
1.98968e-11
3.09669e-11
2.91903e-11
-1.57103e-15
-1.64452e-15
2.74556e-16
8.94822e-16
5.84857e-12
7.32123e-12
2.30075e-12
3.08039e-12
1.07355e-12
1.62227e-12
1.26736e-12
2.07018e-12
7.15529e-13
3.74814e-13
5.00661e-13
1.72359e-13
8.29541e-14
-6.29883e-14
7.64962e-12
1.01508e-11
5.1437e-12
3.46063e-12
4.77262e-12
3.43226e-12
1.00463e-11
9.79918e-12
1.66172e-11
1.39521e-11
1.74271e-11
2.32143e-11
5.81818e-12
8.30259e-12
1.21461e-11
7.12807e-12
1.963e-11
1.74707e-11
1.53887e-11
1.32481e-11
2.22677e-12
1.91169e-12
6.54788e-12
5.38741e-12
2.64362e-29
1.87182e-29
-1.32547e-25
-8.76523e-26
9.14802e-19
1.66482e-18
-9.19153e-21
-8.41891e-21
-1.25341e-21
-1.90149e-21
1.30757e-26
7.39419e-27
2.39448e-28
1.41297e-29
-1.14546e-25
-9.73981e-26
1.33415e-27
1.89419e-27
-4.40198e-46
-2.18943e-46
7.17202e-54
1.94514e-53
-1.69063e-33
-2.70012e-33
4.75225e-38
5.13515e-38
-1.07059e-12
-4.05204e-13
-1.01511e-11
-1.86292e-12
-1.2953e-13
-9.32651e-14
6.17802e-12
1.81937e-12
-1.28021e-12
-9.56478e-13
1.64131e-14
-5.67906e-15
-4.42991e-31
-7.43649e-31
4.73287e-48
7.97072e-48
-4.07853e-19
-1.62081e-19
3.64904e-17
2.65164e-17
-9.19319e-23
-5.65104e-23
-2.47953e-21
-1.20436e-21
4.72246e-22
1.22119e-21
4.20901e-12
2.11364e-13
1.19339e-11
1.20522e-11
4.19854e-11
4.18853e-11
2.57582e-11
2.81852e-11
1.28528e-11
6.13001e-12
1.78251e-11
1.83266e-11
1.17902e-11
1.16858e-11
3.69094e-16
-9.19503e-18
1.73795e-12
2.25356e-12
1.33204e-13
-1.49717e-13
-1.37661e-13
-5.35365e-13
-3.3349e-14
3.24496e-11
1.25142e-11
-2.26649e-13
5.62795e-13
5.50446e-11
5.17338e-11
6.29203e-11
6.59274e-11
1.01932e-12
1.11948e-12
6.04346e-12
5.15035e-12
1.75061e-12
1.75288e-12
1.81802e-11
1.81492e-11
9.63303e-12
9.41351e-12
-1.0718e-13
-4.98728e-14
-9.06578e-14
-2.26102e-14
1.3585e-12
2.52547e-12
-1.39205e-12
-6.62397e-13
-2.10486e-12
1.44101e-11
1.68856e-11
-5.88191e-13
-5.95765e-13
3.8432e-15
-1.47663e-13
3.71579e-11
4.03795e-11
1.74153e-11
-2.20761e-12
9.30692e-11
5.48634e-11
2.6224e-11
3.63047e-12
3.73597e-11
3.50148e-11
3.40723e-11
3.62898e-11
2.78687e-11
4.37465e-11
4.26212e-11
3.91308e-11
3.49048e-11
6.33189e-11
7.03467e-11
4.96825e-11
3.42272e-11
3.17773e-11
3.45564e-11
2.33964e-11
1.54214e-11
1.0707e-11
8.69227e-12
3.43382e-11
3.27951e-11
6.32466e-14
4.49026e-14
-6.43292e-15
-5.08279e-15
3.33433e-16
2.80611e-16
-2.29361e-14
-1.85748e-14
3.32907e-12
4.80953e-12
5.18057e-12
6.3873e-12
2.59346e-12
3.52367e-12
1.43842e-12
9.68889e-13
1.2615e-12
2.13959e-12
6.00994e-13
2.47528e-13
2.31701e-13
7.29411e-15
8.0507e-12
1.09651e-11
6.07366e-12
5.087e-12
8.17583e-12
7.44307e-12
2.18091e-11
2.08923e-11
2.17906e-11
1.69764e-11
1.5389e-11
1.78466e-11
4.45063e-12
6.26119e-12
1.75043e-11
1.7743e-11
1.97771e-11
1.02172e-11
1.23723e-11
1.63568e-12
2.04232e-12
8.54395e-12
1.02906e-11
4.73735e-12
5.8014e-12
1.47358e-12
1.73199e-12
6.25268e-29
-4.40731e-29
2.84501e-27
1.46946e-27
-1.40362e-20
-1.66637e-20
2.04456e-18
1.133e-18
3.24622e-20
8.64707e-20
-9.75057e-21
2.40344e-20
3.51351e-28
1.99577e-28
8.00856e-27
1.64427e-27
-1.84751e-23
-1.73171e-23
8.75037e-27
1.27811e-26
-2.32744e-26
-9.74843e-26
9.47765e-27
1.16084e-26
1.28424e-27
1.72489e-27
-5.52268e-40
-4.32365e-39
-3.64841e-46
-8.4188e-46
-5.59968e-47
-2.84372e-47
-5.71613e-53
-1.64164e-53
-3.3299e-50
-1.06195e-50
-1.59664e-33
-1.50915e-33
4.87694e-54
8.02551e-54
1.37363e-53
-1.00827e-12
-1.46583e-12
3.4025e-11
5.11393e-11
1.45605e-11
7.78509e-11
7.04476e-11
-8.52326e-12
-8.10337e-12
-2.39232e-13
-2.06888e-13
1.07939e-11
1.62151e-11
3.28436e-12
8.00633e-12
-9.21953e-13
-2.62576e-13
-5.35728e-13
-9.81317e-13
1.93061e-13
1.06509e-13
1.77452e-38
9.42997e-39
-8.97695e-33
-3.43247e-32
3.85628e-34
4.70516e-34
-3.41386e-45
-1.08364e-46
1.10436e-14
1.52014e-14
4.7636e-14
3.90646e-14
4.52907e-16
3.3437e-16
1.88063e-17
1.30199e-17
2.70034e-20
2.19664e-20
-1.39882e-20
-2.17628e-20
-1.16766e-20
-4.46939e-20
-2.81923e-20
4.0127e-12
2.93834e-12
2.02259e-12
-8.0952e-13
2.0247e-11
1.87838e-11
1.25346e-11
3.72851e-11
3.74167e-11
3.01699e-11
3.00932e-11
2.90963e-11
4.41263e-12
8.1738e-12
1.85752e-11
2.56205e-11
7.16651e-12
6.84384e-12
-2.00763e-14
-5.72863e-15
3.97845e-12
4.34942e-12
-1.52899e-13
-1.6291e-13
-6.0539e-13
-6.63885e-14
1.3082e-11
3.4898e-11
-1.24599e-12
-9.51992e-13
1.19749e-11
1.01664e-11
6.59465e-11
6.2671e-11
1.34117e-12
1.41512e-12
4.37419e-12
3.7017e-12
3.8511e-12
8.45598e-12
1.1719e-11
1.24615e-11
1.82637e-11
1.82357e-11
-1.54466e-13
-2.46098e-13
-1.42326e-13
4.01447e-15
2.26215e-15
7.56087e-16
2.46319e-12
3.39354e-12
1.82156e-14
3.19133e-13
-8.4769e-14
-1.59972e-14
2.07515e-12
8.37726e-13
-3.99823e-13
-1.04458e-12
-2.24128e-13
-1.88268e-13
9.59873e-11
6.4107e-11
1.75034e-11
-1.69959e-12
6.80015e-11
9.19409e-11
1.19176e-11
1.98721e-11
4.11653e-11
5.41775e-11
5.781e-11
2.17751e-11
1.98092e-11
1.2473e-11
1.95329e-11
4.81027e-11
5.46161e-11
8.71065e-12
7.09495e-12
3.76205e-11
3.70323e-11
-3.071e-15
-2.41875e-15
-1.55031e-15
-1.27329e-15
5.33914e-16
1.85279e-17
-4.23028e-14
-3.58369e-14
-5.69565e-14
6.5056e-12
8.28312e-12
3.95913e-12
3.33077e-12
1.16406e-12
1.79706e-12
2.147e-12
1.20957e-12
5.10467e-13
1.40031e-12
5.74681e-12
4.09097e-12
5.74187e-12
5.3407e-12
8.16511e-12
8.44056e-12
1.38259e-11
1.38786e-11
2.33662e-11
2.48925e-11
1.29179e-11
1.51386e-11
7.05472e-12
4.41418e-12
1.01953e-11
6.35351e-12
7.87644e-12
1.36545e-11
2.21073e-11
2.1763e-11
1.4471e-11
1.39602e-12
1.74282e-12
6.94672e-12
8.4309e-12
3.78646e-12
4.66002e-12
-8.00736e-28
-2.01816e-28
3.50206e-29
-9.32274e-30
-1.45239e-26
-6.54251e-27
-5.69758e-26
-9.27714e-27
4.65934e-18
8.41232e-18
1.29976e-18
2.28267e-18
5.1667e-20
1.26773e-19
-1.36952e-20
-9.42796e-21
-2.80912e-21
-2.27182e-21
8.5293e-29
2.32997e-27
4.3507e-27
7.20522e-28
-1.0727e-22
-9.77357e-23
8.00623e-29
3.53956e-29
1.18079e-28
-1.21657e-29
1.13083e-26
8.71381e-27
-2.38053e-26
-1.06119e-25
-1.12182e-25
-3.08601e-25
1.85582e-27
1.06264e-27
7.91152e-27
5.94748e-27
2.28661e-27
1.76887e-27
1.46207e-30
2.34271e-31
-1.12718e-45
-2.73961e-45
-2.81235e-48
-5.63176e-48
-3.47317e-52
-1.18056e-52
-1.96184e-47
-4.6817e-47
2.88337e-39
1.14589e-39
-1.76987e-33
-1.16924e-33
3.61486e-38
3.59994e-38
-1.41055e-40
-6.38851e-41
1.36888e-10
1.40945e-10
1.78867e-10
-1.7424e-12
-9.82978e-13
-5.67052e-12
-3.1796e-12
-4.13868e-13
-6.45272e-13
2.36617e-15
1.46297e-15
1.22222e-10
1.2363e-10
-7.14131e-14
-7.30452e-14
-1.29611e-13
-3.25935e-16
3.93527e-12
3.33357e-13
7.10951e-15
3.00776e-15
-1.96019e-13
6.56819e-15
1.55266e-12
2.30878e-12
5.54154e-14
5.70699e-14
-1.00514e-45
4.33331e-45
-2.40514e-30
-2.76378e-30
-4.82989e-33
3.86094e-33
-6.78366e-32
-1.27265e-31
-2.66485e-43
-6.28364e-43
1.41574e-42
-1.33011e-43
4.2615e-13
5.35186e-13
7.8809e-20
2.32298e-19
1.99902e-16
3.47662e-16
5.87915e-13
7.33956e-13
1.48573e-14
1.85062e-14
-8.89627e-20
-2.06287e-19
4.06662e-19
2.78185e-19
2.41185e-22
-1.35085e-23
8.4777e-19
6.55493e-19
-1.11838e-20
2.75697e-16
1.23062e-11
1.31227e-11
1.20205e-11
1.38465e-11
3.19941e-11
3.2529e-11
2.07768e-11
2.32178e-11
9.21067e-12
4.82977e-12
6.27514e-12
5.42498e-12
1.58003e-11
1.94701e-11
-4.93374e-17
-5.40121e-15
1.84635e-16
-2.59493e-14
-5.32165e-14
2.60898e-12
3.22256e-12
1.50711e-14
2.64476e-13
-3.25781e-14
-2.55498e-13
-9.96223e-13
-4.10729e-13
-1.0264e-12
-4.6241e-13
1.01969e-12
1.51608e-11
1.4299e-11
5.32397e-11
4.79689e-11
7.5477e-12
6.95976e-12
2.62609e-12
1.83216e-12
3.50633e-12
4.11931e-12
5.23285e-12
1.12402e-12
-4.30966e-14
1.25751e-12
5.95939e-13
-2.43368e-13
-3.29258e-13
-1.86986e-13
-2.36578e-13
-6.46641e-14
-1.14664e-13
-5.71247e-14
6.69274e-12
1.18342e-11
9.08629e-12
5.35775e-12
6.42314e-12
7.79959e-13
1.40705e-12
-1.72071e-13
-7.03107e-14
-9.17169e-13
-2.17268e-12
-1.31011e-13
8.17207e-11
5.24746e-11
6.4535e-11
1.00762e-10
2.56769e-11
1.52356e-11
2.70214e-11
1.5777e-11
2.88198e-11
3.51051e-11
2.45833e-11
2.20902e-11
6.08303e-11
6.26481e-11
3.9129e-11
2.59708e-11
1.70358e-11
1.1821e-11
1.75e-11
2.66846e-11
2.48716e-15
6.75526e-15
-1.2743e-14
-1.07281e-14
-3.47266e-15
-3.46742e-15
4.55074e-17
1.39083e-17
-5.24569e-14
-1.81442e-14
-3.09399e-14
-1.8661e-14
4.40984e-12
3.12671e-12
4.52678e-12
5.50641e-12
9.48172e-13
1.92894e-12
2.05362e-12
2.74306e-12
4.51653e-12
4.77396e-12
1.18605e-11
1.16821e-11
1.47609e-11
1.26404e-11
9.94785e-12
6.93561e-12
1.08025e-11
1.27594e-11
5.09197e-12
8.36697e-12
5.6647e-12
8.67563e-12
1.08278e-11
6.43501e-12
2.47509e-11
2.40405e-11
1.58784e-12
2.20939e-12
1.18921e-12
1.49231e-12
7.06061e-12
5.70331e-12
-3.9124e-28
-1.07006e-27
-9.04818e-27
-5.29546e-27
-7.66806e-27
-8.58971e-27
-3.73634e-25
-6.64337e-25
-2.40125e-21
-4.78398e-21
2.17223e-17
2.61178e-17
3.92019e-18
3.60153e-18
6.08082e-19
3.12121e-19
1.90407e-19
1.49862e-19
-1.91665e-20
9.97922e-21
-6.09072e-21
-8.24711e-21
4.80879e-29
2.7866e-29
4.38652e-27
3.23373e-28
-5.99121e-23
-3.12122e-23
-1.14347e-22
-8.8516e-23
-2.19692e-23
-1.68745e-23
-1.82993e-23
-2.62453e-30
-4.64231e-30
-7.45891e-30
-1.04785e-29
8.04394e-28
1.20093e-26
1.06134e-26
8.40425e-27
-1.9228e-26
-2.74691e-25
-4.84019e-25
-2.22053e-25
-1.66448e-25
-7.29179e-26
-2.86633e-26
1.65053e-27
2.82818e-27
9.27142e-27
9.80324e-27
3.1936e-27
3.0094e-27
1.67291e-33
2.15189e-33
9.32474e-29
1.63539e-28
1.09648e-43
3.72703e-44
-8.30917e-45
-3.95652e-45
-1.11395e-47
-1.10331e-46
-2.66807e-51
-1.41793e-51
3.77522e-54
7.10716e-54
-5.4174e-51
-3.36741e-51
1.35846e-38
6.29208e-39
-8.23378e-33
-5.52878e-33
5.76001e-36
7.2068e-36
1.16582e-39
2.7677e-39
1.47658e-38
1.35778e-38
1.56815e-42
1.06244e-42
-4.72355e-53
1.00999e-54
4.1372e-11
8.526e-11
-2.19172e-12
-2.40257e-12
-3.68138e-12
-1.87745e-12
-2.71e-12
-1.33351e-12
-8.35885e-12
-5.27338e-12
-6.34094e-12
1.42774e-11
1.0943e-11
3.4724e-10
3.69537e-10
-5.95658e-14
-2.73611e-14
-6.63213e-14
-1.63067e-13
-3.21665e-13
-8.58804e-13
-9.36773e-13
1.92208e-13
-6.02512e-13
-2.72832e-12
-2.4892e-13
-1.63781e-13
5.23978e-14
1.70639e-14
-2.24635e-15
-1.07757e-15
1.04053e-13
1.90113e-13
5.45927e-35
6.52633e-35
-1.37462e-42
-8.47535e-43
-7.14264e-35
-1.10322e-34
1.65695e-34
1.30832e-33
3.59357e-33
5.71076e-33
-4.70569e-43
-1.16383e-42
-1.56618e-43
3.39627e-43
8.09628e-14
1.06953e-13
2.77799e-13
3.51542e-13
4.88284e-19
2.0068e-19
-2.39353e-24
-5.51421e-24
-2.16226e-24
-6.31303e-23
-2.51157e-20
4.49591e-21
2.27481e-14
2.75758e-14
8.24425e-17
5.8309e-17
1.83534e-20
1.3833e-20
-3.07038e-18
-2.53513e-18
2.73182e-23
1.44369e-22
1.40423e-19
1.62047e-19
1.76281e-11
1.83892e-11
5.48763e-12
9.40699e-13
4.7248e-11
5.03236e-11
3.13266e-11
3.12706e-11
2.62761e-11
2.76562e-11
1.03274e-11
5.24525e-12
5.10683e-12
1.10751e-11
1.71031e-11
2.12143e-11
-1.11233e-13
-9.36741e-14
-9.729e-14
9.82753e-13
1.59268e-13
8.9618e-13
3.64469e-12
5.2618e-13
9.42182e-13
-9.90605e-13
-7.75712e-13
1.25733e-12
1.40504e-12
3.76185e-11
3.98087e-11
1.84201e-12
1.31503e-12
2.15849e-12
3.12276e-12
1.42902e-11
1.4131e-11
1.79354e-11
1.81529e-11
2.55161e-12
3.95296e-12
-8.40698e-14
-1.14493e-13
-4.55156e-15
1.98153e-13
4.60874e-13
6.16853e-14
-1.62796e-13
-1.65061e-13
-2.70736e-14
-1.19747e-13
-2.10052e-13
-7.83019e-15
2.49476e-15
1.70794e-16
7.11532e-17
1.11449e-11
1.88191e-11
1.08543e-11
1.33487e-12
3.47756e-12
-2.26148e-13
-1.36977e-13
-2.29182e-13
-2.51605e-13
-3.18569e-13
-9.02406e-14
-8.36363e-13
-3.41291e-12
-1.62254e-12
8.56698e-11
5.35375e-11
2.49316e-11
2.2282e-11
2.09336e-11
1.36218e-11
2.60635e-11
3.58849e-11
6.64535e-11
3.08698e-11
1.7794e-11
4.03576e-11
3.40004e-11
2.82026e-11
2.65427e-11
6.29761e-11
5.7242e-11
2.97971e-11
4.42077e-11
2.36797e-14
3.06762e-14
-1.6548e-15
-1.37805e-15
-6.95127e-15
-2.28098e-15
-4.61544e-15
-9.28331e-15
9.9722e-16
6.24026e-16
5.32319e-16
1.18938e-17
-6.22294e-15
5.92134e-16
-3.00758e-15
-3.96038e-14
3.97336e-12
2.87484e-12
3.28326e-12
2.42417e-12
5.81977e-12
5.55011e-12
6.88157e-12
6.33598e-12
1.60819e-11
1.62346e-11
1.2947e-11
1.12868e-11
1.19003e-11
8.27007e-12
3.91477e-12
5.32309e-12
5.03216e-12
7.3736e-12
2.77605e-11
2.6405e-11
1.91225e-12
2.72e-12
1.81435e-17
1.786e-17
1.24923e-25
2.61575e-26
1.17327e-25
5.46463e-26
3.5824e-27
3.2757e-27
-3.5562e-26
-2.52145e-26
-6.21293e-25
-4.93844e-25
-6.5884e-22
-3.96409e-22
1.81698e-20
-2.00854e-20
5.21039e-18
3.89034e-18
1.17521e-18
2.53753e-18
1.69149e-18
2.90507e-18
9.50832e-20
2.27057e-19
3.80975e-19
7.18192e-19
2.67711e-19
-2.79692e-20
-6.78855e-21
-2.60791e-20
1.65375e-21
-6.10523e-21
-4.60494e-21
-3.29483e-21
-2.89374e-34
-1.32982e-34
2.24689e-28
4.01551e-28
-3.18833e-28
-6.80486e-27
4.80831e-30
5.56345e-30
-1.89447e-23
-5.16941e-23
-2.06922e-22
-3.7299e-22
-9.7872e-24
-7.1485e-24
-3.87281e-23
-2.98247e-23
-3.59027e-24
-2.73487e-24
7.68143e-29
2.84372e-29
5.03018e-29
5.13651e-28
1.70504e-26
1.33628e-26
1.34184e-26
1.27493e-26
-1.92402e-25
-6.31026e-26
-1.8811e-24
-1.42764e-24
-3.81015e-26
-4.30467e-26
3.72646e-27
2.22921e-27
6.78193e-27
7.09447e-27
-9.06799e-27
-1.27122e-27
1.0558e-27
1.68436e-27
-6.15167e-35
-2.0406e-35
-8.0263e-31
-9.66231e-31
3.43528e-29
1.72824e-29
4.24087e-29
3.56768e-36
1.70317e-36
-1.27068e-45
-2.41808e-45
-4.29889e-48
-2.53782e-47
-3.98903e-50
-5.29528e-50
5.68399e-51
6.47139e-50
-1.03424e-50
-9.55897e-51
-2.83582e-52
-5.78991e-52
-7.72281e-53
-3.06153e-53
-1.04242e-49
-2.09978e-49
-8.70228e-51
-2.10922e-51
5.9088e-29
1.0028e-28
-9.222e-35
-6.8489e-35
6.2981e-37
4.50133e-37
1.37203e-36
7.63823e-37
-5.47961e-40
-5.5301e-40
9.57192e-39
1.16832e-38
2.2687e-42
4.85542e-42
-2.22035e-45
-3.94354e-45
2.59586e-54
3.17227e-54
-1.70465e-14
-4.56289e-15
-1.88514e-12
-1.75147e-12
-1.37673e-12
-2.74819e-12
-1.86638e-12
-3.50962e-12
-2.82658e-12
-2.64638e-12
2.53979e-13
6.39834e-12
2.57788e-12
2.46706e-12
7.28491e-11
6.78162e-11
3.25205e-10
2.91082e-10
1.21911e-10
1.63573e-10
-1.42506e-13
-1.31339e-13
1.64539e-11
2.60671e-11
-2.26029e-13
8.24851e-13
-3.20376e-12
-3.08653e-12
-1.94135e-12
-2.20763e-12
-2.77049e-12
-2.62972e-12
1.1881e-13
-4.75975e-13
-9.24544e-13
-5.63122e-13
-1.21507e-20
5.27739e-20
1.13951e-12
1.69104e-12
4.26049e-19
1.73752e-18
5.92529e-29
5.78735e-29
-1.58844e-40
-7.85602e-40
-8.64961e-43
-5.64878e-43
-1.36368e-35
-4.21188e-35
-4.86262e-34
-7.28369e-34
5.19076e-34
1.68915e-35
-1.97747e-31
-3.10622e-31
2.60468e-33
2.10062e-33
6.98798e-38
1.32758e-37
-3.60621e-46
-1.56743e-46
-1.06018e-43
-7.53778e-44
-2.51811e-45
-1.36446e-45
3.84561e-13
4.84787e-13
4.41324e-13
5.50056e-13
1.84503e-16
1.22716e-16
1.93548e-16
1.24094e-16
-1.76451e-24
-2.7171e-23
-5.44997e-23
6.242e-21
-4.66187e-20
2.7504e-13
2.14668e-13
1.30681e-15
1.02676e-15
2.43145e-16
1.74097e-16
-1.40636e-18
-9.53146e-19
-8.20109e-23
-9.15601e-23
-9.57732e-17
-7.94207e-17
3.08816e-19
2.37822e-19
-9.52726e-21
-6.86607e-21
-1.56905e-17
3.68768e-19
2.68233e-11
2.65453e-11
7.23274e-12
1.82081e-12
4.11469e-11
4.41452e-11
2.95064e-11
2.81115e-11
2.3567e-11
2.52199e-11
1.4379e-11
6.79659e-12
1.14839e-11
1.18106e-11
6.67046e-17
-2.38205e-18
-6.75683e-14
1.23662e-12
1.32569e-11
3.67759e-11
1.55345e-12
2.20211e-12
1.31715e-11
1.31587e-11
1.36515e-11
-3.50646e-13
3.39414e-13
-1.80444e-13
-7.36865e-15
-1.11401e-14
1.02081e-12
2.23641e-12
9.59406e-13
-1.52095e-13
-2.47686e-14
3.94977e-15
6.40223e-17
6.5775e-16
-4.99063e-17
1.00206e-11
1.83116e-11
6.00991e-13
-1.15252e-13
-2.43781e-13
1.95717e-13
-1.71696e-13
-1.43868e-13
1.49373e-12
-7.10201e-13
-2.87618e-12
7.77464e-11
8.54979e-11
7.83045e-11
2.79476e-11
5.91914e-12
1.78041e-11
2.53609e-11
5.36199e-11
9.57252e-11
1.30512e-11
2.59746e-11
5.8935e-11
3.08287e-11
5.15624e-11
4.46294e-11
2.33765e-11
1.38091e-11
4.37654e-11
4.30231e-11
7.04721e-14
1.12017e-13
1.8595e-13
1.91384e-13
3.52521e-14
1.01421e-14
6.28378e-16
-6.93224e-15
-6.33171e-15
-1.0015e-15
1.02682e-16
-7.49533e-18
-2.07549e-17
-8.00911e-16
-2.05712e-14
-2.19824e-14
-1.12454e-14
1.06857e-11
8.99588e-12
3.95851e-12
2.88106e-12
4.74912e-12
4.45855e-12
1.84389e-11
1.8906e-11
3.42522e-12
4.53472e-12
2.01994e-11
1.60178e-11
-9.28249e-21
-5.96189e-21
1.07392e-15
1.22234e-15
-5.20423e-26
-1.33961e-25
2.82311e-19
5.32955e-19
-1.94915e-22
-9.91791e-23
3.55202e-28
1.6556e-27
-2.1437e-26
-4.31528e-27
-3.65061e-26
-2.3125e-26
-1.72609e-26
1.37364e-22
1.87164e-22
-1.2107e-21
-1.93058e-21
-3.84642e-22
-2.12452e-22
-2.6736e-21
-4.31014e-21
2.76251e-18
5.12664e-18
1.48237e-17
1.22126e-17
9.77491e-18
1.11368e-17
6.61804e-18
1.10197e-17
4.88338e-18
3.68544e-19
4.74408e-19
5.20144e-19
9.5652e-19
-3.05661e-20
-1.47057e-20
-1.53058e-20
-2.03066e-20
-2.20951e-21
-3.38927e-21
-4.01774e-21
-5.51274e-21
9.46266e-33
6.07335e-33
2.26851e-28
1.2491e-28
1.29001e-27
8.68354e-28
2.32755e-27
2.52903e-26
3.83274e-27
2.04776e-26
1.31495e-26
-7.2842e-23
-5.07693e-23
-6.33711e-23
-3.12682e-23
-1.91472e-22
-1.48728e-22
-9.66378e-23
-1.06004e-22
-2.71444e-23
-4.80025e-23
-6.69757e-24
-5.11767e-24
-4.39664e-24
-1.3158e-31
-3.1049e-31
1.24177e-31
-3.43836e-30
1.63013e-26
1.35615e-26
4.09785e-27
6.66451e-27
5.81896e-27
1.46738e-26
-1.08906e-24
-2.25243e-24
-4.72494e-25
-3.55534e-25
-2.67258e-25
1.60064e-27
8.96639e-28
8.75956e-27
1.17959e-26
6.75705e-27
-1.52419e-27
-1.18386e-26
1.19888e-27
2.00683e-27
2.47967e-27
-3.79232e-32
-1.21894e-32
-3.82553e-31
-6.67561e-31
5.08333e-30
2.59452e-31
6.31088e-30
1.75174e-29
-3.74633e-38
-1.88918e-38
-1.08947e-45
1.79517e-46
3.65861e-49
1.10754e-49
5.01913e-50
-8.37856e-47
-2.31207e-46
-1.88051e-45
-9.01022e-46
-2.20984e-47
-4.49649e-47
2.41935e-49
-1.42392e-48
-2.62674e-51
-2.14688e-51
-1.54794e-52
-5.15264e-52
-1.3001e-52
-7.12285e-52
1.74211e-50
-8.27664e-52
-2.79129e-50
-4.97995e-50
-4.60617e-48
-1.87397e-48
2.75408e-30
1.16329e-30
-1.70987e-32
-1.01076e-32
-4.71602e-35
-4.10396e-35
-3.67667e-34
-4.7284e-34
-3.51999e-33
-7.24029e-33
5.51253e-36
4.83558e-36
8.52159e-37
7.53889e-37
-1.25303e-43
-1.19695e-42
-7.6703e-40
1.0086e-40
-2.15447e-40
-7.47295e-41
4.91086e-42
5.00674e-42
-1.28038e-47
-1.81349e-47
5.25399e-54
6.21185e-53
1.92823e-53
1.06384e-12
8.44714e-13
2.09755e-10
1.84577e-10
1.09408e-11
2.88901e-11
2.06954e-11
1.2616e-12
-5.09039e-13
6.97721e-14
1.91234e-12
-1.34007e-12
-2.13529e-13
2.6558e-13
2.30656e-15
1.36752e-15
1.44918e-11
1.87158e-11
1.47065e-10
1.2928e-10
1.05222e-10
5.62086e-11
2.99206e-10
2.9762e-10
1.70804e-10
2.57495e-10
-3.8817e-12
1.09704e-14
1.32015e-12
3.10262e-12
1.6567e-11
2.4749e-11
-5.75694e-13
-6.05604e-13
-4.81187e-13
1.72217e-12
-1.8425e-12
2.84771e-12
-3.51623e-12
-5.7799e-12
-1.71462e-12
-2.46473e-12
-8.83388e-13
3.07192e-10
3.68585e-10
2.74367e-10
4.47273e-17
-1.13234e-16
-9.53328e-16
5.86842e-13
3.4084e-13
-4.52981e-20
-6.8096e-20
5.11752e-23
2.67987e-23
6.45093e-36
-2.14995e-36
-8.07361e-38
-1.93157e-37
-2.92457e-39
-7.80821e-39
-5.72987e-43
-3.49289e-43
8.97565e-40
4.61628e-40
-2.48009e-35
-6.51347e-36
-1.92304e-29
-2.31359e-29
1.77528e-34
-2.09648e-35
2.59161e-33
4.0568e-34
-4.97019e-31
-6.92711e-31
1.90092e-33
9.59737e-34
7.96657e-34
8.81404e-34
4.91601e-41
6.27448e-41
-1.16327e-45
-6.41739e-46
2.23647e-48
9.74165e-49
-2.22126e-44
-3.21294e-45
-6.20086e-45
-3.29516e-46
1.19469e-47
7.15601e-48
-1.43321e-46
-5.40793e-47
2.3599e-13
3.02468e-13
3.45799e-13
2.7505e-13
1.66594e-16
2.50022e-16
1.09914e-16
1.72098e-16
1.45623e-16
3.10658e-16
1.71543e-19
-1.17444e-19
-2.62352e-19
-6.08061e-19
2.26344e-14
1.67786e-14
3.54879e-15
3.35707e-15
5.82912e-16
4.20119e-16
1.14333e-16
1.56e-16
-3.14342e-19
-2.07843e-19
-1.00044e-22
-1.03842e-22
-4.13108e-18
-2.90411e-18
-1.64574e-17
-1.29663e-17
5.10358e-19
3.976e-19
-4.86234e-21
-3.45173e-21
3.00054e-13
2.6619e-13
2.34959e-11
3.22286e-11
2.61277e-11
8.86867e-12
1.01665e-11
3.95892e-11
4.11664e-11
1.84989e-11
6.27339e-16
1.94949e-13
2.02427e-13
7.3523e-12
5.49754e-12
6.80766e-12
7.59192e-12
3.18038e-12
4.23105e-12
4.01198e-12
-2.96284e-13
-4.9065e-13
-5.77096e-14
-1.17094e-13
-2.59017e-14
1.29845e-16
-8.32396e-18
-9.04293e-14
-3.05391e-14
6.80699e-16
1.75306e-11
1.7542e-11
-4.05953e-13
-4.4339e-13
-9.2489e-13
3.39783e-13
-2.08618e-12
-2.40022e-12
-3.05179e-13
-1.14419e-12
-3.87189e-13
8.29542e-11
9.0878e-11
3.1831e-11
9.46277e-12
1.64015e-11
2.54693e-11
8.89596e-11
5.09151e-11
4.52331e-11
2.26022e-11
1.43113e-11
2.58764e-11
3.91518e-11
4.60409e-11
1.45851e-14
4.02693e-15
1.88686e-13
8.8899e-14
-1.23537e-15
-3.23264e-15
-1.22947e-14
-4.65291e-15
1.53393e-16
2.44421e-16
2.51394e-14
7.46282e-12
8.89853e-12
6.91389e-12
4.87925e-12
7.03632e-12
6.7573e-12
5.77885e-12
9.68147e-12
5.61774e-17
5.47315e-17
1.36132e-13
1.65533e-13
7.99709e-16
7.01748e-16
-9.8245e-26
-5.82903e-26
4.91857e-30
-2.61894e-29
7.84375e-19
1.46209e-18
1.12304e-24
6.83035e-25
-2.72891e-21
-4.03415e-21
1.12825e-22
1.50801e-22
-3.44742e-27
-3.06841e-27
-4.70336e-27
-2.91479e-27
5.29856e-27
2.03046e-27
-1.14737e-26
-7.42686e-27
3.50405e-23
6.49053e-23
-2.04649e-21
-3.19288e-21
-7.00293e-22
-1.14016e-21
-1.56605e-22
-2.93105e-22
6.03047e-19
1.2744e-18
1.42218e-18
2.76602e-18
9.56864e-18
1.70373e-17
2.71805e-18
1.35048e-18
2.94698e-17
3.16666e-17
6.36158e-18
8.09503e-18
1.06106e-17
6.22699e-18
1.77231e-19
7.45173e-20
-3.02549e-20
-3.04035e-20
-8.10459e-22
2.28073e-20
-2.9009e-21
-1.90738e-21
-4.98167e-21
-6.75702e-21
-1.20635e-33
-6.19363e-34
-3.90295e-33
-1.48482e-33
1.10787e-28
5.98859e-29
2.84417e-27
1.448e-27
-8.9556e-26
-1.8838e-25
1.85792e-27
1.4394e-26
-1.03611e-27
-5.91228e-28
-2.07382e-26
5.52928e-26
-9.52318e-23
-1.34957e-22
-1.14818e-22
-2.19781e-22
-1.52432e-21
-1.56968e-21
-4.87672e-24
-3.49101e-24
-3.17817e-23
-2.82759e-23
-3.13773e-23
-3.37994e-23
-8.34447e-23
-6.71303e-23
-4.9838e-24
-5.21297e-24
-1.2244e-23
-9.38193e-24
2.4324e-27
4.10831e-27
-1.42631e-30
-7.9954e-31
9.33589e-29
3.22045e-29
9.20712e-29
1.13247e-27
-1.02709e-26
8.09636e-27
9.68708e-27
6.55254e-27
1.2913e-26
1.27793e-26
-8.89956e-25
-1.88592e-24
-9.59391e-25
-7.24932e-25
2.00262e-27
1.17212e-27
7.12488e-27
1.01825e-26
4.60058e-27
5.84763e-27
-2.55554e-28
-1.18223e-26
3.16552e-27
3.09566e-27
-1.8109e-35
-4.57045e-36
-2.78472e-32
-1.37887e-32
-5.41488e-31
-2.05838e-31
-6.01959e-33
-4.24799e-31
4.19241e-29
7.74519e-29
4.38382e-36
2.19347e-36
5.91188e-42
6.34409e-42
-9.46818e-47
-1.22814e-46
-3.92401e-45
-5.65313e-45
-5.48914e-46
-1.57533e-45
-6.33679e-48
-2.62912e-47
1.36074e-48
2.96696e-48
-9.65143e-47
-2.22068e-46
-2.57576e-48
-4.54688e-48
-7.67365e-49
-4.04047e-49
-8.14605e-50
-2.96249e-50
-3.49616e-52
-1.06938e-51
-8.79647e-49
-2.05626e-48
-4.20991e-49
-9.62377e-49
-3.16179e-49
-1.12654e-49
-1.60673e-48
-5.40988e-49
3.63112e-30
1.86666e-30
9.28768e-31
2.2689e-30
-1.4958e-32
-2.51779e-32
-3.41007e-35
-2.33331e-35
-8.11011e-34
-9.93478e-34
-3.52432e-33
-7.00802e-33
3.33649e-36
3.01837e-36
4.61491e-36
5.94898e-36
1.50236e-37
3.74993e-37
5.8018e-37
3.86775e-37
2.32486e-39
2.59539e-39
-1.14888e-40
-1.03417e-40
4.19842e-42
4.02624e-42
-1.62824e-44
-2.45034e-44
-1.79932e-48
2.94432e-48
-1.4203e-49
-7.86281e-49
1.37521e-52
6.60328e-13
3.83421e-13
1.01128e-15
3.28063e-17
3.38736e-10
3.20873e-10
-8.36751e-14
2.03033e-14
9.54483e-11
5.39692e-11
2.41529e-12
9.03444e-12
1.20765e-11
4.8839e-12
6.36085e-12
2.06356e-11
-4.15489e-12
-4.4645e-12
-1.68758e-12
-1.21891e-12
-8.5945e-15
-7.41281e-15