/*--------------------------------*- C++ -*----------------------------------*\
  =========                 |
  \\      /  F ield         | OpenFOAM: The Open Source CFD Toolbox
   \\    /   O peration     | Website:  https://openfoam.org
    \\  /    A nd           | Version:  7
     \\/     M anipulation  |
\*---------------------------------------------------------------------------*/
FoamFile
{
    version     2.0;
    format      ascii;
    class       volScalarField;
    location    "1560";
    object      T;
}
// * * * * * * * * * * * * * * * * * * * * * * * * * * * * * * * * * * * * * //

dimensions      [0 0 0 1 0 0 0];

internalField   nonuniform List<scalar> 
238806
(
0.722082
0.709818
0.96588
1.3305
1.18036
0.81128
0.839966
0.65643
0.662601
0.90611
0.907132
1.1865
0.807361
0.784263
1.24004
1.22179
0.949215
0.92816
0.653574
0.719914
0.731999
0.731153
1.15104
1.00935
1.18168
0.95375
0.959995
1.00019
1.07323
1.19189
0.775396
0.788147
0.865237
0.840064
0.856748
0.853926
0.996037
0.996133
0.903836
0.899395
0.906805
1.27841
0.824265
0.824032
0.709311
0.652995
0.958474
0.933829
0.807663
0.768309
0.767009
0.802104
0.798412
0.77419
1.01142
1.01433
0.910328
0.896249
0.906929
0.916378
0.913954
0.980953
0.849949
0.835255
0.820174
0.76916
0.70398
0.671018
0.736344
0.677041
0.671223
0.811699
0.842525
0.755334
0.791158
0.759561
0.728322
0.855401
0.852201
0.991926
0.993399
0.805838
0.757964
0.740263
0.695001
0.712197
0.713244
1.00295
1.03669
1.00587
1.00014
0.932244
0.915137
0.737492
0.826306
0.867411
0.865561
0.866414
0.891331
1.29168
0.65375
0.653287
0.637399
0.753426
0.804903
0.768183
0.779129
0.739989
0.766239
0.826127
0.854381
0.700139
0.702559
0.809498
0.777068
0.829715
0.822397
1.03107
1.0407
1.03686
1.05874
1.14562
0.701527
0.741622
0.807124
0.836501
1.14283
1.19927
0.994576
1.11265
0.907691
0.929958
0.96489
1.30014
0.944211
0.92215
0.686528
0.685554
0.965143
1.16535
1.09655
1.21909
0.839259
0.828
0.920358
0.637841
0.638167
0.640117
0.662935
0.656618
0.648798
0.689933
0.664825
0.80196
0.826514
0.73493
0.749455
0.798287
0.830083
0.738695
0.736093
0.768829
0.739042
0.745683
0.706579
0.819256
0.813158
0.996645
0.994537
0.988931
0.989114
0.787949
0.745381
1.0705
1.0555
1.11479
0.698436
0.741893
0.795012
0.756202
1.1394
1.19845
1.41614
0.962703
0.945647
0.95716
0.898433
1.11396
0.738369
0.738266
0.748457
0.747829
0.866956
0.983486
0.909613
0.909054
0.882097
1.17374
1.34347
1.07259
1.22162
0.726079
0.662315
0.693282
0.764733
0.680376
0.746904
0.697468
0.694741
0.650639
0.664512
0.974906
0.986201
0.844695
0.86826
0.862191
0.835613
0.911729
0.89006
0.777173
0.746155
0.706875
0.703567
0.706281
0.737348
0.713417
0.750943
0.844794
0.84093
0.985337
0.983684
0.995911
0.99592
1.00458
1.00456
0.995018
0.99501
0.636635
0.637523
0.960312
0.997656
1.08262
1.0406
0.983367
0.984084
0.705675
0.744234
0.740003
0.781147
0.724486
0.731349
0.783799
0.778019
0.934711
0.948366
0.961635
0.987302
0.934041
0.945594
0.832493
0.835522
0.751535
0.749997
0.864458
0.87324
0.701161
0.70472
0.902374
0.877
0.944473
0.957948
0.85866
1.06413
0.981966
1.25091
1.10444
0.66578
0.729519
0.628353
0.646606
0.637027
0.644971
0.672742
0.667688
0.806958
0.828355
0.767843
0.713848
0.901291
0.8955
0.946406
0.962838
0.839071
0.862326
0.867618
0.889206
0.857958
0.881799
0.879048
0.900656
0.786663
0.817711
0.835467
0.817858
0.709947
0.72407
0.822469
0.794507
0.749327
0.717325
0.849348
0.865527
0.825323
0.84879
0.733134
0.74334
0.993861
0.993786
0.992133
0.990931
1.00124
1.00158
0.993741
0.992268
1.00403
1.00383
0.994742
0.994748
1.03492
0.774646
0.73785
1.13524
1.11029
0.997289
0.997285
0.813318
0.806002
0.973313
0.972877
0.913625
0.914112
0.803886
0.832557
0.747723
0.788007
0.722146
0.727068
1.21414
1.23585
1.05316
1.26458
1.08902
1.08981
0.960178
1.05727
0.781119
0.78687
0.737361
0.82503
0.826356
0.857394
0.869296
0.856794
0.7952
0.947659
0.859506
1.13552
1.06523
1.16613
0.86112
0.842626
1.00289
0.966636
1.41668
1.12269
1.04733
1.09296
0.770072
0.849238
0.941493
0.833691
0.763205
0.700698
0.726424
0.807289
0.709305
0.785241
0.712718
0.71538
0.722637
0.731678
0.806092
0.756803
0.732167
0.672951
0.831901
0.814691
0.672737
0.654078
0.6656
0.667277
0.97395
0.965453
0.756988
0.753334
0.834692
0.85726
0.859299
0.881995
0.892758
0.910199
0.919116
0.940701
0.77739
0.806408
0.80982
0.826933
0.712409
0.722163
0.786208
0.81628
0.737572
0.724293
0.861651
0.858547
0.831354
0.852866
0.723059
0.9918
0.991383
0.984074
0.982364
0.994749
0.995733
0.996248
0.995217
0.996524
0.996504
0.990164
0.990243
1.00381
1.00382
0.995816
0.994777
1.00354
1.00355
0.964523
0.940248
0.942873
0.894606
0.880479
0.899808
1.12455
1.08463
1.16587
1.01141
1.01432
0.878716
0.881668
0.967309
0.967752
1.12455
1.11321
1.18986
1.12035
0.916941
0.934036
0.709796
0.700162
0.823406
0.846227
0.718892
0.755102
0.731417
0.756828
1.01296
0.972191
1.15254
1.26812
0.903079
1.16491
0.952758
0.735966
0.819384
0.685601
0.687213
0.679754
0.678488
0.871019
0.877411
0.829978
0.835934
0.849405
0.853563
0.780627
0.765044
0.850599
0.808255
1.20279
0.941291
0.919674
0.989215
1.09755
1.25638
1.12341
1.22687
1.00278
1.0169
0.811919
0.831779
0.815703
0.916286
0.66841
0.730738
0.656644
0.654729
0.624888
0.6619
0.641433
0.632266
0.695213
0.697638
0.681113
0.684298
0.720873
0.712922
0.811131
0.830106
0.644021
0.652081
0.820622
0.835775
0.722956
0.774462
0.671678
0.698581
0.958933
0.96085
1.1281
1.11796
0.748632
0.739513
0.778057
0.765262
0.816092
0.795277
0.833986
0.807953
0.851539
0.874936
0.884678
0.903232
0.908807
0.927396
0.752657
0.734721
0.770518
0.796781
0.833503
0.851199
0.748017
0.764383
0.715991
0.722253
0.735634
0.709729
0.838217
0.815867
0.792823
0.82728
0.684149
0.695528
0.703324
0.713163
0.859681
0.862703
0.753662
0.763914
0.993812
0.994241
1.00166
1.00035
0.991228
0.989932
0.997332
0.995245
1.00174
1.00141
0.99422
0.994217
0.991624
0.996254
1.00408
1.00385
1.00402
1.00401
0.9956
0.995595
0.997602
0.997689
1.00223
1.00423
1.00193
0.999275
1.01506
1.03825
0.971202
1.07968
0.946307
0.929495
0.826839
0.857946
0.946428
0.902765
1.11304
1.06786
1.00372
1.00798
1.00065
0.999941
0.996148
1.00251
0.969511
0.970386
1.11531
1.11625
1.11529
1.10994
1.13289
1.1243
0.892199
0.911165
0.806348
0.810648
0.714525
0.722406
0.753409
0.747978
0.819873
0.844909
0.728176
0.731925
0.755165
0.751367
1.19056
1.19471
0.876926
0.856569
0.920091
0.937003
0.958245
0.988055
1.21965
0.7375
0.811778
0.943074
0.939019
0.692906
0.689377
0.68459
0.683495
0.874187
0.879569
0.780733
0.789327
0.861018
0.871242
0.695827
0.698439
0.793485
0.802355
1.01291
1.09147
0.974696
1.28005
0.876669
0.867809
0.977545
0.883446
1.03948
0.817943
0.793585
0.934725
0.967337
1.28188
1.23986
0.756074
0.742045
0.835353
0.93962
0.701209
0.765418
0.744584
0.827967
0.694698
0.695845
0.700042
0.695605
0.718073
0.717368
0.728182
0.761599
0.767231
0.70507
0.697167
0.683641
0.742751
0.694394
0.686974
0.738977
0.785218
0.817882
0.833822
0.667651
0.665752
0.912509
0.916859
0.951123
0.947431
1.03098
1.06473
0.961237
0.977497
0.789148
0.765937
0.75038
0.743374
0.778292
0.763341
0.794292
0.813165
0.842656
0.815695
0.87625
0.896359
0.900768
0.917963
0.758127
0.736289
0.801982
0.821073
0.745857
0.741711
0.720067
0.712502
0.708964
0.728501
0.77748
0.749348
0.846269
0.841938
0.714793
0.721733
0.695414
0.774163
0.764074
0.865797
0.8647
0.75969
0.749041
0.789113
0.779658
0.78428
0.781251
1.0483
1.05539
1.06434
1.06392
0.989785
0.991668
0.988312
0.989823
0.996091
0.995153
0.995593
0.994483
0.996952
0.996954
0.995665
0.999218
1.00402
1.00376
0.988571
0.988552
0.99349
0.993507
1.0009
1.0009
1.00379
1.0038
0.99664
0.996695
0.994573
0.994561
0.995633
0.995673
1.03811
1.0382
0.995374
0.995544
1.00432
1.00228
1.02923
1.0265
1.01751
0.933535
0.976607
0.838053
0.794187
0.900282
0.769179
0.772398
0.968835
1.01403
0.953858
0.93523
0.776862
0.751423
0.841873
0.810831
1.01053
1.00598
0.993999
1.0086
0.886233
0.894494
0.994686
0.994676
1.0037
1.008
1.01154
1.01447
0.988834
0.98671
0.905835
0.90062
0.873938
0.876123
0.943399
0.945253
0.971365
0.972408
0.970475
0.969898
1.0544
1.01312
1.03606
1.00681
0.999048
0.865756
0.885536
0.92479
0.895214
0.802814
0.811438
0.825486
0.695403
0.707388
0.745247
0.706157
0.719385
0.850911
0.833504
0.736966
0.712375
0.792119
0.801781
0.985747
1.07122
0.825646
0.811521
0.954192
0.940726
0.992366
1.11128
0.812981
0.735565
0.897044
1.10222
0.835025
0.83692
0.681509
0.684134
0.867796
0.8753
0.797507
0.805353
0.814543
0.758661
0.749998
0.735859
0.708912
0.715277
1.03344
0.969133
1.00104
1.19645
1.31953
1.08558
0.864553
0.852361
0.909873
0.897901
1.06068
1.14243
0.867493
0.87497
1.02441
0.98674
1.00157
1.00446
0.669914
0.722492
0.836285
0.953848
0.653668
0.625974
0.825656
0.794364
0.68989
0.678972
0.678461
0.808124
0.810801
0.825002
0.796252
0.649627
0.649795
0.82312
0.837838
0.659017
0.681402
0.953457
0.95162
0.963714
0.968138
1.04766
1.01267
0.95599
0.942152
0.985798
0.748227
0.736622
0.759141
0.761469
0.820518
0.79777
0.825078
0.852238
0.891041
0.868609
0.827974
0.847115
0.761313
0.75458
0.773333
0.756451
0.746096
0.731992
0.707615
0.712784
0.785621
0.75918
0.807172
0.837277
0.829978
0.839903
0.825335
0.789486
0.694473
0.680623
0.754589
0.868946
0.867698
0.791623
0.783232
0.814905
0.80735
1.00236
0.986389
1.0484
1.05538
0.996529
0.994293
0.999211
0.993955
0.965073
0.962281
0.990493
0.989073
0.995881
0.994948
0.998239
0.998926
1.00104
1.00087
0.996431
0.995006
0.995883
0.99932
1.00353
1.00331
0.989406
0.989358
0.99639
0.999533
0.993345
0.99327
0.991969
0.991994
0.996776
0.996785
1.00288
1.00285
1.00417
1.00414
1.004
1.00398
0.993979
0.991924
0.994767
0.995787
0.988636
0.988602
1.02531
1.02547
0.996404
0.996412
0.991845
0.991841
1.00001
0.999989
1.00453
1.00385
0.99474
0.995036
0.703316
0.706558
0.661174
0.978863
1.00017
1.00696
1.03834
1.0354
0.996464
0.957798
0.962118
0.683742
0.673573
0.962955
0.949894
0.918634
0.903832
0.845486
0.876854
1.10678
1.15979
1.03613
1.14959
0.778518
0.766007
0.897623
0.902518
0.995725
0.995882
1.01133
1.0142
1.00801
1.00371
1.0114
1.0143
0.993454
0.994686
0.994572
0.993695
0.831902
0.824608
0.979804
0.977152
0.941664
0.936648
0.832445
0.825965
0.893502
0.891149
0.982707
0.982121
0.982484
0.984219
1.1189
1.11822
0.968954
0.969702
1.03299
1.15044
0.799141
0.791351
0.835404
0.825985
0.713874
0.703067
0.767253
0.760215
0.830103
0.849151
0.818926
0.830146
0.72208
0.71831
1.06753
1.01151
1.06066
1.01123
0.951291
0.875879
0.854624
0.922193
0.912336
1.29888
1.04386
0.96167
1.02974
0.896944
1.11063
0.938393
0.828274
0.829483
0.689448
0.691217
0.720453
0.722846
0.819957
0.846822
0.823675
0.816848
0.813712
0.880104
0.937953
0.868813
0.891397
0.954423
0.949086
0.983944
0.942893
0.958921
0.992295
0.940364
0.826524
0.800483
0.817291
0.842121
0.824902
0.887192
0.875207
0.993986
1.06043
0.942538
0.961479
1.10766
0.699924
0.758902
0.727646
0.66937
0.809031
0.816302
0.779755
0.817503
0.756517
0.72274
0.775755
0.792344
0.680178
0.683943
0.704307
0.760524
0.802122
0.826687
0.78012
0.731212
0.934826
0.932561
0.952475
0.94581
0.960024
0.956142
1.10697
1.17679
0.934076
0.925327
0.993895
1.02292
0.76341
0.783622
0.753242
0.748037
0.872102
0.846767
0.862123
0.848546
0.799334
0.782432
0.739826
0.755284
0.720552
0.724026
0.809265
0.833372
0.793307
0.768466
0.833925
0.801619
0.841964
0.834181
0.79593
0.829314
0.685476
0.674402
0.861261
0.843387
0.872141
0.870598
0.769826
0.799596
0.986501
1.00262
0.995842
0.994417
0.994173
0.994059
0.993844
0.994074
0.984436
0.98394
0.964643
0.967629
0.98754
0.986678
0.991213
0.992494
0.994128
0.993671
0.994571
0.993398
1.00038
0.999847
0.99585
0.995922
0.995057
0.996476
0.991531
0.991683
1.00288
1.00274
1.00329
1.00314
1.00407
0.999456
0.999502
0.999523
0.999519
0.992141
0.994896
0.994853
0.990324
0.990345
0.993509
0.994992
1.0038
1.00364
1.00368
1.00372
0.996474
0.99652
1.00293
1.0029
1.0043
1.00428
0.998681
0.998745
0.99273
0.994475
1.00374
1.00374
0.996095
0.995838
0.988588
0.995607
1.02544
1.02541
1.01811
1.01812
0.993251
0.993249
0.992156
0.992188
0.994784
0.995175
1.00198
0.999222
1.00378
1.00453
0.99924
1.00189
0.995597
0.994819
1.02948
1.04011
0.798957
0.740016
1.00546
0.959083
0.890146
0.898566
1.05663
1.00744
0.988748
0.911824
1.01758
0.77432
0.804958
0.611289
0.609797
0.990813
1.01099
0.96228
0.911744
0.929389
0.912818
0.940007
1.28034
1.02115
1.03226
1.02499
1.06965
1.29716
1.20322
0.930315
0.901836
0.889242
0.880539
0.998239
0.992426
0.986344
0.986124
1.00306
1.0036
0.992743
0.993707
1.00801
1.0037
0.993375
0.994822
0.993674
0.994564
0.88806
0.881733
0.83612
0.828878
0.975083
0.977962
1.08046
1.08065
1.06846
1.08449
1.00298
0.995051
0.88918
0.887652
0.959275
0.960845
0.992786
0.993518
0.991881
0.993432
1.11736
1.11814
0.975241
0.977053
0.753443
0.743853
0.869328
0.908974
0.691518
0.690489
0.746862
0.75412
0.725707
0.709684
0.826749
0.847586
0.851859
0.787221
0.727822
0.715496
0.934957
0.932281
0.952685
0.893016
0.923961
0.912753
0.84185
0.908312
0.893127
0.934614
0.931549
0.937467
0.934987
0.752242
0.757556
0.833256
0.856688
0.841507
0.81282
0.767154
0.773149
0.696456
0.69437
0.848689
0.830829
0.943795
0.980236
0.914386
0.918545
0.896281
0.930275
0.936036
0.962563
0.914259
0.943478
1.0543
1.16745
1.19336
1.04803
1.08283
0.808275
0.763616
0.787089
0.876698
0.852861
0.935254
0.909881
0.947967
1.01106
0.974158
1.20612
0.976627
0.955856
0.980082
0.700436
0.761079
0.811571
0.81454
0.806673
0.82136
0.80629
0.762862
0.683578
0.77317
0.813903
0.703643
0.745695
0.744329
0.759692
0.678489
0.685252
0.752081
0.694059
0.92285
0.91964
0.950481
0.957799
0.940966
0.937496
0.999479
0.97405
1.10235
1.06177
1.1459
1.17261
1.00572
1.08761
1.05458
0.975411
0.762638
0.780063
0.843966
0.858805
0.77384
0.791062
0.753448
0.747926
0.724787
0.737078
0.725894
0.727053
0.80218
0.828153
0.848663
0.845517
0.84411
0.838171
0.678938
0.670476
0.857035
0.837374
0.982149
0.980898
0.995399
0.996674
0.996941
0.996456
1.03097
1.03391
1.05025
1.04685
1.0135
1.01006
0.990444
0.989093
0.980454
0.982146
0.968584
0.967868
0.982722
0.980544
0.99042
0.989067
0.994722
0.99363
0.993014
0.991804
0.993938
0.992921
0.99171
0.995639
0.99663
0.997444
0.999968
1.00044
1.0507
1.05076
0.995887
0.995899
0.996398
0.995846
1.05079
1.05281
0.987768
0.987469
0.991094
0.990799
0.998685
0.996707
1.00317
1.00302
1.00356
1.00341
0.989437
0.989542
0.996181
0.991529
0.988521
0.989045
0.991874
0.99179
0.994994
0.994983
1.00363
1.00347
1.0039
1.00417
0.998616
0.998575
1.00418
1.00293
1.00375
1.00377
1.00434
1.00433
0.996861
0.996861
0.989975
0.989883
0.994308
0.992487
0.990887
1.00066
1.00065
0.995543
0.995536
0.99328
0.993284
0.999434
1.00074
1.02464
1.02417
1.02524
1.025
1.03827
1.03832
0.997713
1.01827
0.994637
0.994639
0.99458
0.994746
1.00132
1.00133
1.0015
0.9987
1.00393
1.00453
0.99503
0.995022
0.999107
1.00175
1.00382
1.00453
1.00442
1.00306
0.99513
0.995835
1.03122
1.02835
1.01465
1.02955
0.962354
0.938864
0.906904
0.946817
0.922115
1.00635
0.963928
1.03903
1.03337
0.881054
0.795755
0.790088
0.665414
0.661336
0.613221
0.632766
0.665909
0.636486
0.959536
0.974691
0.764565
0.733114
0.896699
0.869813
0.936982
0.930784
0.893004
1.02306
0.982671
1.01153
1.17358
1.00061
0.96204
0.984138
1.12336
1.04252
0.773018
0.760337
0.972386
0.968567
1.00198
1.00381
0.993676
0.993624
0.984743
0.984578
1.0036
1.0036
1.01282
1.03356
0.993673
0.992725
1.01138
1.01427
1.01148
1.0144
0.992613
0.993391
0.993228
0.993094
0.994533
0.993617
1.00208
1.00208
0.845445
0.837497
0.82143
0.813945
0.93808
0.94203
0.956898
0.960105
1.08263
1.07878
1.08011
0.994946
1.00259
0.845887
0.852162
0.937739
0.938817
0.947236
0.949289
0.99994
1.00049
1.11067
1.11192
0.987553
0.988351
0.971853
0.972753
1.03405
1.03447
1.21094
1.22789
0.71766
0.713842
0.845201
0.900349
0.709448
0.692474
0.769203
0.779339
0.732624
0.713874
0.815864
0.843036
0.775091
0.765384
1.1897
1.18197
0.964517
0.895907
0.81509
0.73502
0.851867
0.826775
0.785364
0.723896
0.713702
0.935854
0.900599
1.01381
1.163
1.19518
0.871891
0.830355
0.867279
0.976261
1.13236
1.10244
1.21426
1.1842
1.17441
0.822621
0.774091
0.892027
0.909106
0.923439
0.901344
0.964104
0.922289
0.906503
1.11476
0.939238
0.667811
0.659762
0.671154
0.797255
0.884625
0.810303
0.810822
0.736039
0.646354
0.823253
0.804916
0.696005
0.772369
0.691898
0.728621
0.786537
0.821328
0.708475
0.701848
0.912724
0.907121
0.889686
0.884223
0.916413
0.930415
0.941561
0.956198
0.96321
0.988064
1.00413
1.18567
1.17851
1.03799
0.932847
0.949078
0.99791
0.777391
0.800679
0.838801
0.855111
0.769339
0.761563
0.718222
0.728271
0.851227
0.848922
0.720509
0.756196
0.995405
0.995974
0.957428
0.953988
0.995842
0.995823
0.990272
0.989233
0.992204
0.992468
1.06249
1.03915
1.02051
1.02431
0.998198
0.997316
1.04368
0.99183
0.992252
0.988294
0.989524
0.987609
0.987924
0.990718
0.989867
0.965669
0.962974
0.97035
0.96743
0.984406
0.983179
0.985881
0.984087
0.987612
0.993266
0.992463
0.99285
0.991679
0.990664
0.989394
0.997194
0.996609
1.00177
1.00134
1.00063
1.00016
0.992587
0.992599
0.996487
0.996471
0.996113
0.996119
0.99684
0.99522
0.996592
0.991692
0.991879
0.994457
0.992984
0.98985
0.988572
1.00271
1.00256
1.00218
1.00321
1.00341
1.00328
1.00348
1.00333
1.00372
0.999147
0.999231
0.996445
0.996677
0.989042
0.989033
0.989878
0.990029
0.991927
0.990289
1.00386
1.00383
1.00374
1.00359
1.00403
1.00079
1.00074
0.998681
0.998702
1.00089
1.00395
1.00393
1.0048
1.0048
1.00432
0.994318
0.995396
0.9934
0.993271
0.989235
0.98874
0.990624
0.990775
0.998099
0.998113
1.01108
1.03819
0.993535
0.993858
0.993888
0.994546
0.99464
0.995713
0.995633
0.988579
0.988579
1.0238
0.995791
1.03865
1.03887
1.01837
1.01849
1.03822
1.0254
0.993301
0.993265
0.994193
0.994192
0.996313
0.996317
1.00168
1.00168
0.995198
0.995193
1.00355
1.00381
0.999794
1.00174
0.998116
0.997948
0.999293
1.00205
0.996824
0.995263
1.00335
1.00341
1.00374
1.00453
0.994747
0.995036
1.0005
0.997628
1.00101
1.00024
1.01838
0.998176
1.00774
0.800939
0.804786
0.730788
0.739285
0.852146
0.815617
0.831372
0.901371
1.03014
1.13449
0.894766
1.07773
0.960098
0.917136
0.953655
0.958307
0.793419
0.760716
0.662373
0.670389
0.761154
0.795293
0.636036
0.644501
0.682189
0.627548
0.987769
1.11256
0.855869
0.829127
0.756943
0.730331
0.971372
0.947178
0.924624
0.876002
0.908972
0.852057
0.918303
0.934707
1.02612
0.954189
1.01612
0.694167
0.662884
0.714693
0.992716
0.973308
0.953907
0.869141
0.87777
0.985612
0.986943
0.98417
0.979049
0.995418
0.99729
1.0169
1.01688
0.990309
0.990253
0.985536
0.985409
0.990986
0.990913
1.00305
1.00305
0.999716
1.00389
0.993643
0.992711
0.995574
0.994966
1.01137
1.01425
0.999453
0.996807
1.01153
1.01444
1.01225
1.01514
0.993494
0.99334
1.03544
1.03486
0.988786
0.986922
0.988783
0.986835
0.987396
0.987546
1.0033
1.0034
0.860841
0.853328
0.8207
0.827949
0.939651
0.935531
0.956927
0.953585
0.946804
0.938465
0.981758
0.990449
1.00202
0.995571
0.93086
0.934322
0.943301
0.947007
0.935998
0.938656
0.95778
0.956405
1.00043
1.00106
1.11315
1.11419
0.980618
0.977299
0.994056
0.995051
0.970222
0.970962
1.03413
1.0338
0.839359
0.839321
0.738049
0.705722
0.732391
0.821991
0.802338
0.70812
0.695901
0.774239
1.11259
0.832785
0.835326
0.825325
0.840758
0.831253
0.776927
0.841173
0.766025
0.77088
0.921947
0.984401
1.1832
0.936829
1.03501
1.22206
1.28703
0.983724
1.02164
1.17693
0.751968
0.745884
0.942574
0.966661
0.913223
0.89134
0.973876
0.954669
1.12703
1.01135
0.992375
0.672103
0.663055
0.782799
0.865195
0.813276
0.8101
0.652917
0.739038
0.720818
0.789386
0.819031
0.807714
0.737192
0.701335
0.926142
0.929652
0.87922
0.89924
0.942971
0.944821
0.961417
0.973783
1.16257
1.08427
0.918589
0.807757
0.785911
0.822081
0.842779
0.765066
0.782156
0.831214
0.797388
0.962169
0.960976
0.904071
0.897091
0.963188
0.962788
0.994858
0.995318
1.00392
1.00651
0.978349
0.976445
0.99666
0.996683
0.991503
0.990833
0.994902
0.994977
0.994713
0.994667
1.03506
1.03245
1.06451
1.02776
1.04066
1.03781
0.982323
0.983126
0.987782
0.988941
0.98873
0.990022
0.994097
0.993525
0.968427
0.966081
0.96669
0.964148
0.965815
0.962969
0.985758
0.987521
0.970289
0.972994
0.98688
0.985675
0.982982
0.984906
0.994332
0.995324
0.994011
0.991803
0.997098
0.996246
1.00131
1.0017
1.00053
1.00004
1.02206
1.02293
0.996168
0.996178
0.996952
0.996947
0.996417
0.995868
0.996324
0.995753
0.996555
0.995163
0.984683
0.984295
0.994104
0.998191
0.992792
0.994263
0.988185
0.989398
1.00093
1.00183
0.998726
0.99675
1.00351
1.00242
1.00363
1.00387
1.00313
1.00304
1.00398
1.00424
1.00339
1.00324
0.991332
0.991436
0.997218
0.99735
0.991938
0.992231
0.999467
0.996254
0.994964
0.994933
0.991678
0.991551
0.996674
0.996704
1.00264
1.00264
1.00369
1.00353
1.00419
1.00418
0.996603
0.99664
1.00479
1.00477
1.00425
1.00422
1.00479
1.00464
0.996629
0.996643
0.993407
0.993214
0.990066
0.993504
0.989011
0.988775
0.992624
0.994398
1.00299
1.00299
1.00265
1.00262
1.00425
1.00462
0.996808
0.996806
0.994748
0.995746
0.994296
0.994429
1.04007
1.04013
0.988587
0.988596
0.995681
0.995602
0.995954
0.996172
0.996008
0.996185
0.997759
0.997819
0.994635
0.994638
0.995432
0.995425
0.996731
0.996883
0.995458
0.995607
0.996166
0.995806
0.998917
0.998919
0.994789
0.994798
1.00161
0.998777
1.00426
1.00223
1.00071
1.00048
0.99934
1.00208
0.995222
0.995203
0.996813
0.996821
0.994747
0.995018
1.00183
0.999179
0.996217
0.995081
0.99766
1.00047
0.995667
0.995655
1.00139
0.994168
0.998341
0.993382
0.998787
0.80917
0.827221
1.05207
1.04393
0.625651
0.624602
1.05744
1.07895
0.721828
0.757213
0.888159
0.870289
0.88775
0.918046
0.916893
0.859468
0.997846
0.951068
1.04564
1.08665
0.956821
0.952871
0.769815
0.783727
0.705803
0.682559
0.696859
0.708772
0.813103
0.810244
0.79686
0.794505
0.617858
0.633423
0.697846
0.714602
0.818214
0.950474
0.619949
0.687442
0.983551
1.11627
0.791483
0.80535
0.781509
0.729149
0.917137
0.888484
0.867175
0.826537
0.801748
0.821187
0.854141
0.886469
1.07063
1.09146
1.09593
1.05378
1.21767
1.11044
1.27689
0.76238
0.779908
0.989348
0.990831
0.951559
0.953684
0.791794
0.785888
0.884256
0.87488
0.92083
0.924917
1.02924
1.03337
0.919806
0.914176
0.995387
0.995364
1.00249
1.00249
0.998044
0.998144
0.993909
0.993968
0.994749
0.99482
0.986312
0.984678
0.990833
0.990754
1.00172
1.00173
0.985043
0.990049
0.995279
0.994147
0.999598
1.00378
0.987297
0.98713
0.994378
0.994291
1.00798
1.00371
1.01134
1.01422
0.995547
0.994864
0.996812
0.999455
1.0115
1.01442
1.01178
1.01469
0.993473
0.994901
1.00113
1.00177
0.996316
0.998388
0.988805
0.986928
0.98878
0.986899
0.991854
0.996
0.995986
1.0026
1.0027
0.839385
0.846728
0.974291
0.972081
0.913944
0.908973
0.96415
0.96114
0.969017
0.971293
0.927664
0.920755
0.934957
0.928889
0.965877
0.973581
1.00344
0.997354
1.05546
1.09341
0.979233
0.969928
0.934135
0.93729
0.959644
0.962078
0.892141
0.896006
0.967737
0.967512
0.94014
0.941674
0.993404
0.993907
0.968557
0.968741
0.96883
0.968647
1.0328
1.03222
0.990186
0.988291
0.988164
0.99015
0.971077
0.971893
1.14868
1.17621
1.18281
0.768111
0.779372
0.819017
0.820392
0.726286
0.73072
0.86006
0.857853
0.840139
0.954252
0.914194
0.901099
0.831943
0.792263
0.983192
1.186
1.21194
1.14256
1.12259
1.13145
1.17064
0.843628
0.853003
0.89542
0.877266
1.03087
0.928976
0.752636
0.691454
0.697986
0.692646
0.715716
0.709654
0.671811
0.753391
0.807753
0.811311
0.781322
0.708499
0.921413
0.926265
0.903549
0.907989
0.993694
1.03038
0.814455
0.79403
0.948562
0.949566
0.77179
0.765335
0.910933
0.906251
0.949877
0.946065
0.980057
0.978641
0.994647
0.994913
1.05111
1.05193
0.995517
0.996179
0.993142
0.993519
0.9744
1.00053
1.00154
0.995459
0.996693
0.994239
0.994235
0.988138
0.98735
0.994516
0.992317
0.996423
0.995871
0.994259
0.994791
0.995239
0.994543
1.0644
1.06393
0.995137
0.994436
0.99272
0.991856
0.987183
0.988266
0.987231
0.989168
0.989498
0.988928
0.989558
0.97091
0.968819
0.973106
0.971129
0.975353
0.97235
0.965076
0.962299
0.983352
0.985457
0.979776
0.977653
0.988585
0.98717
0.986044
0.984352
0.998455
0.996397
0.993732
0.992824
0.998373
0.997534
0.99906
0.998335
0.99753
0.996742
0.998842
0.999435
1.00032
0.999718
1.00097
1.01897
1.01856
1.00517
1.00463
0.992618
0.992641
0.996802
0.995986
0.996393
0.99644
0.995884
0.996353
0.995792
0.994628
0.994104
0.992054
0.999023
0.993031
0.995245
0.995946
0.999958
0.990599
0.990837
0.987668
0.987997
0.990009
0.98871
0.989648
0.9884
1.00228
1.00213
0.99875
0.996777
1.00337
1.00232
1.00348
1.00371
1.00289
1.00428
1.00418
1.00363
1.00353
0.992876
0.992811
0.992851
0.993004
0.988723
0.988719
0.988989
0.988917
0.99637
0.999506
0.989498
0.989489
0.99341
0.99346
0.996733
0.996754
1.00388
1.00265
1.00455
1.00455
1.00456
1.00419
1.00419
0.99637
0.996423
0.998653
0.996563
1.00475
1.00471
1.00466
1.00468
0.995271
0.994289
0.990025
0.989796
0.998822
0.998901
0.98881
0.98883
0.988881
0.990441
0.988731
0.989305
1.0039
1.0039
1.00072
1.00072
1.00454
1.00455
0.993693
0.995745
1.00388
1.00387
0.992947
0.992147
0.994366
0.996239
0.996229
0.996594
0.996608
0.994734
0.995701
0.993307
0.993358
0.988636
0.988833
0.995602
0.995579
1.02359
1.02354
0.988933
0.988893
0.996134
0.988976
0.996323
0.996318
0.99543
0.995444
0.994186
0.993255
0.994136
0.99429
0.996335
0.996498
0.996238
0.99639
0.996452
0.993044
1.00384
1.00384
0.994847
0.995275
1.00378
1.00364
1.00181
0.999805
0.999996
0.995096
0.995083
0.999347
1.00207
0.995046
0.995036
0.995265
0.995264
0.993574
0.9935
0.996532
0.995166
0.997737
1.00074
1.00303
1.00441
1.00244
0.999452
1.00007
1.00089
1.00256
0.996697
0.998011
0.993195
1.05663
1.05514
0.664163
0.657817
0.66695
1.03714
1.0641
0.656319
0.664957
0.647211
0.688117
0.837566
0.75549
0.878851
0.83204
0.897134
1.04598
1.02079
1.04913
1.0391
0.772709
0.954033
0.956719
0.896063
0.890869
0.765723
0.770152
0.848007
0.865786
0.739756
0.727681
0.673663
0.677937
0.672513
0.683949
0.776634
0.786316
0.776208
0.780418
0.815888
0.798269
0.797627
0.788325
0.785078
0.685712
0.685695
0.68858
0.683449
0.740399
0.725475
0.752939
0.750666
0.683749
0.625733
0.830747
0.847442
1.17699
1.0602
0.863261
0.887849
0.765423
0.762538
0.749708
0.79715
0.785248
0.940619
0.98786
0.772068
0.788937
0.9379
0.961733
1.05301
1.10049
1.11691
1.12529
1.24976
0.685717
0.633045
0.954497
0.973456
1.03217
1.03503
0.928989
0.916712
0.927731
0.854216
0.862236
0.866058
0.859053
0.893197
1.00303
1.00303
1.06012
1.05906
0.921332
0.927117
0.989784
0.989596
0.988454
0.994223
1.00249
1.00198
1.00379
1.00379
0.992327
0.992233
0.996118
0.996107
0.994488
0.994593
0.987873
0.987769
1.00563
1.00568
0.996458
0.996544
0.994578
0.994586
1.00171
1.00169
1.00253
1.00252
0.990775
1.01223
1.03304
0.993965
0.995182
1.00802
1.01132
1.01418
1.03906
1.03437
0.994462
1.00799
1.0037
0.999449
0.9968
1.0081
1.00376
0.993382
0.992607
1.01207
1.01494
0.996858
0.999834
0.992587
0.992559
1.03646
1.02188
1.00355
1.00474
0.998598
0.996516
0.991962
0.992003
0.991897
0.991938
0.994291
0.994338
1.00221
1.0022
0.857508
0.864399
0.875054
0.86815
0.994674
0.996808
0.969697
0.972058
0.903554
0.898354
0.903848
0.898617
0.976688
0.978906
0.967935
0.970393
0.923938
0.916608
0.931371
0.924881
0.970548
0.962015
0.989666
0.980595
1.00366
0.991146
1.06217
1.08915
1.04511
1.10047
1.03782
1.10556
0.858219
0.851179
0.820152
0.826664
0.891731
0.896883
0.871026
0.87223
0.905647
0.902304
0.980917
0.980713
0.955171
0.954109
0.991559
0.991994
0.998944
0.999727
0.978305
0.97877
0.973693
0.974586
1.03159
1.03145
0.985119
0.986633
0.988893
0.98944
0.980639
0.978694
0.961394
1.23832
1.1836
1.20305
0.97273
0.965529
0.831472
0.831678
0.874681
0.861251
0.736348
0.729829
0.711864
0.688776
0.7044
0.686148
0.684026
0.945512
0.975275
0.854679
0.830823
0.816137
0.784202
1.02093
1.26828
1.16695
1.23506
1.06614
1.09427
1.22654
0.932522
0.972011
0.669844
0.658369
0.699845
0.756587
0.70547
0.745143
0.661554
0.934064
0.940085
0.932515
0.933285
0.772011
0.766505
0.902619
0.897487
0.960043
0.956877
0.965765
0.96597
0.994816
0.995283
1.00411
1.00408
1.04656
1.0526
1.00062
1.00147
0.986041
1.04893
1.05502
0.993244
0.993656
0.990766
0.991848
0.979077
0.977093
0.99552
0.996704
0.994244
0.99576
0.995947
0.987353
0.986254
0.994569
0.992894
0.992637
0.996017
0.996436
1.02761
1.02538
1.04145
1.06153
1.02998
1.00724
0.993737
0.995785
0.99716
0.997373
0.987778
0.989672
0.986784
0.986261
0.988809
0.986969
0.987501
0.981085
0.982064
0.97056
0.972802
0.969876
0.972157
0.968143
0.969017
0.970827
0.972233
0.969427
0.991968
0.993275
0.98376
0.984544
0.981465
0.977629
0.975378
0.988317
0.989662
0.999806
1.00021
0.994992
0.995868
0.998061
0.998849
0.996678
0.995738
0.998252
0.999647
0.999072
1.00087
1.00085
0.996058
0.99603
0.994514
0.994157
1.04047
1.0398
0.996157
0.996143
0.996622
0.996649
0.994523
0.994488
0.996482
0.995902
0.996859
0.996869
0.996021
0.995378
0.994209
0.994801
0.994228
0.994231
0.993853
1.02731
0.992565
0.995529
1.05794
1.04711
1.00653
0.983263
0.993355
0.994828
0.988201
0.987834
0.994393
0.998414
0.997687
0.99349
0.992555
0.994027
0.990134
0.988819
0.999617
0.99929
1.00203
1.00187
1.00378
1.00261
0.996438
0.99842
1.00057
1.00046
1.00378
1.0036
1.00414
1.00388
0.994717
0.994675
0.991035
0.99097
0.997461
0.999063
0.999312
0.999389
0.989471
0.988603
0.988827
0.989007
0.996434
0.999531
0.992192
0.98943
1.00275
1.00284
0.99873
0.998723
1.00081
1.00082
1.00445
1.00441
1.00395
1.00388
1.00449
1.00453
1.0029
1.00292
0.998529
0.998482
1.0046
1.00462
0.995769
0.995769
0.992251
0.993987
0.996133
0.997772
0.997778
0.998984
0.99756
0.992034
0.994062
0.990018
0.989164
0.988758
0.993804
0.993834
0.991775
0.99179
1.00072
1.00391
1.00391
1.00422
1.0039
0.988226
0.988229
1.0039
1.0039
1.00389
1.00389
1.00001
1.00003
1.00449
1.00414
0.996248
0.996344
0.995506
0.995498
0.996801
0.996796
0.994577
0.994577
0.99561
0.995911
1.02475
1.02471
1.03839
1.03849
0.988843
0.988783
0.995966
0.996013
0.996056
0.995539
0.995543
0.996806
0.996804
0.994184
0.99418
0.993173
0.993334
0.996399
0.996409
0.995539
0.995536
1.04395
1.04505
1.00187
0.996164
0.995809
0.99964
0.999642
0.995215
0.995206
1.00078
1.00073
1.00366
1.00381
0.999798
1.00181
1.00452
1.0045
0.995128
0.995114
1.00201
0.999331
1.00399
1.00452
0.996774
0.996722
0.994747
0.994751
0.993695
0.993669
1.00347
0.998188
1.00227
0.999305
0.995116
0.996417
1.0011
0.998361