/*--------------------------------*- C++ -*----------------------------------*\
  =========                 |
  \\      /  F ield         | OpenFOAM: The Open Source CFD Toolbox
   \\    /   O peration     | Website:  https://openfoam.org
    \\  /    A nd           | Version:  7
     \\/     M anipulation  |
\*---------------------------------------------------------------------------*/
FoamFile
{
    version     2.0;
    format      ascii;
    class       volScalarField;
    location    "0.08";
    object      p;
}
// * * * * * * * * * * * * * * * * * * * * * * * * * * * * * * * * * * * * * //

dimensions      [0 2 -2 0 0 0 0];

internalField   nonuniform List<scalar> 
238806
(
6.60905e-07
6.57012e-07
-6.77675e-08
9.08533e-08
3.14972e-09
5.93882e-07
6.02095e-07
6.87273e-07
7.60318e-07
1.41411e-07
1.63483e-07
2.28773e-07
6.82118e-08
6.41206e-08
-1.0098e-07
-1.15984e-07
1.15341e-07
7.48401e-08
2.12109e-06
2.13811e-06
8.65398e-08
7.66183e-08
-9.97016e-08
-6.73983e-08
-3.88317e-08
7.69577e-08
1.9539e-08
7.15046e-08
-2.21085e-08
-1.11982e-07
1.88989e-06
2.09886e-06
4.38692e-08
6.5476e-08
1.28646e-07
1.43397e-07
3.5096e-10
3.1102e-10
1.18248e-07
2.45708e-07
1.90056e-07
-2.98749e-08
2.34842e-06
2.58231e-06
1.90967e-06
1.89057e-06
-5.18082e-08
-3.65137e-08
8.73802e-08
1.08832e-07
2.62363e-07
2.72952e-07
7.54346e-08
7.07758e-08
-1.61987e-10
-1.6535e-10
1.51926e-07
4.55147e-08
1.38571e-07
2.15089e-07
1.58071e-07
3.11846e-07
1.88185e-07
2.55094e-07
2.96394e-07
1.70289e-06
1.70439e-06
8.65948e-07
7.76678e-07
4.33151e-07
3.85117e-07
5.94327e-08
4.05048e-08
1.05855e-07
8.44187e-08
1.97756e-07
1.83433e-07
1.28239e-07
1.42786e-07
1.15978e-09
1.15414e-09
5.99552e-08
8.85066e-08
1.0275e-06
1.08453e-06
3.7736e-07
3.37513e-07
2.51699e-08
-5.34392e-08
6.3637e-08
2.63356e-08
3.12626e-07
2.00021e-07
1.95286e-06
1.90082e-06
2.50334e-07
2.77963e-07
1.43287e-07
1.07854e-07
-1.88292e-08
1.68134e-06
8.75123e-07
8.25388e-07
7.38999e-07
7.41857e-07
3.13387e-08
2.49013e-08
9.13646e-08
7.42173e-08
6.28769e-08
4.17912e-08
1.89898e-07
2.12233e-07
2.43536e-07
2.33516e-07
7.16144e-08
7.92051e-08
2.93641e-10
3.31578e-10
1.88399e-10
-1.32972e-07
-1.27234e-07
8.4891e-07
8.00762e-07
6.62741e-07
6.71318e-07
-1.26543e-07
-1.47734e-07
-2.18561e-09
5.99663e-10
2.55751e-07
-8.75998e-09
4.42217e-08
-4.29542e-08
1.1573e-07
2.62603e-07
1.7949e-06
2.014e-06
-2.45618e-07
-7.50503e-08
-1.27351e-07
-7.72755e-08
1.81875e-07
1.2421e-06
9.96372e-07
1.11274e-06
1.05245e-06
7.35619e-07
7.78098e-07
5.17152e-07
4.82196e-07
3.26757e-07
3.06402e-07
2.1127e-08
1.23739e-08
7.17659e-08
5.97225e-08
5.69665e-08
3.996e-08
7.8772e-08
7.00619e-08
1.78118e-07
1.66583e-07
2.72391e-07
2.61863e-07
1.24541e-07
1.39047e-07
1.42321e-09
1.42539e-09
3.48479e-10
3.09898e-10
5.46353e-08
7.92091e-08
-5.13075e-08
-3.98198e-08
-2.12611e-08
9.55915e-07
9.01859e-07
2.95125e-07
2.81975e-07
-1.1256e-07
-1.38273e-07
-6.94112e-08
6.79744e-08
-1.49661e-08
3.83171e-08
1.00049e-06
9.16007e-07
2.17593e-06
2.43597e-06
2.32985e-06
2.56908e-06
9.79985e-07
8.1745e-07
1.39829e-07
-5.32802e-10
1.46358e-07
-4.64218e-08
-6.36481e-08
1.28816e-09
-6.99025e-08
2.03363e-06
2.08514e-06
1.10894e-06
1.04895e-06
9.77225e-07
8.66475e-07
3.28726e-07
2.9345e-07
4.29122e-07
4.61416e-07
-6.02075e-08
-6.68718e-08
4.49451e-09
-3.00775e-09
9.97892e-09
2.32721e-08
1.39733e-08
2.82666e-08
7.882e-08
9.81957e-08
1.8932e-07
1.71947e-07
2.08862e-07
2.45699e-07
2.36097e-07
2.43952e-07
1.27434e-07
1.42139e-07
3.08175e-09
3.31771e-09
9.84209e-10
1.01033e-09
3.30437e-10
3.08112e-10
4.73886e-10
4.65296e-10
3.50644e-07
4.02597e-07
3.55838e-08
1.02201e-07
-1.30617e-07
-1.41294e-07
-4.66644e-09
-3.94736e-09
7.49923e-07
7.06473e-07
3.50516e-07
3.67415e-07
2.91941e-07
2.65969e-07
1.39551e-07
1.51209e-07
3.81873e-09
7.20215e-09
5.06596e-08
1.11609e-07
1.86286e-06
2.20476e-06
2.08247e-06
2.35832e-06
1.88655e-06
2.10296e-06
1.8231e-07
1.84264e-07
8.16006e-07
9.08732e-07
1.88606e-07
2.15218e-07
-1.57088e-08
-3.21579e-08
2.40435e-07
-5.72837e-08
-1.75661e-09
1.76504e-07
1.24496e-07
1.85022e-06
1.78818e-06
1.40855e-06
1.33172e-06
9.33748e-07
9.87621e-07
5.7413e-07
6.13727e-07
5.77996e-07
5.82171e-07
4.46476e-07
4.31834e-07
-1.52911e-08
-1.22626e-08
-4.50588e-08
-5.46489e-08
5.33905e-09
-1.50426e-09
9.00216e-10
-9.10048e-09
2.3151e-08
6.3871e-09
2.20054e-08
1.24008e-09
5.3464e-08
3.81454e-08
6.83461e-08
6.94821e-08
1.37526e-07
1.18751e-07
1.9448e-07
1.87609e-07
2.19734e-07
2.00828e-07
7.42492e-08
7.60886e-08
1.11793e-07
1.14473e-07
1.05074e-07
9.49663e-08
1.29398e-09
1.27406e-09
2.19233e-09
2.33052e-09
1.0358e-09
9.80563e-10
1.10673e-09
1.11456e-09
2.13952e-10
1.96212e-10
4.72939e-10
4.81637e-10
3.17101e-10
5.02079e-08
7.58828e-08
-1.08152e-07
-1.04513e-07
-2.33923e-10
-2.34192e-10
3.32117e-08
3.59649e-08
-3.53296e-08
-2.71469e-08
7.02791e-07
6.58123e-07
7.35726e-07
7.31974e-07
3.13124e-07
3.28496e-07
2.55002e-07
2.43375e-07
-2.28634e-07
-6.62659e-08
-1.14294e-07
-6.03158e-08
4.33408e-07
5.69235e-07
1.31825e-06
1.99251e-06
1.458e-06
1.21427e-06
1.15208e-06
2.12549e-06
1.91268e-06
2.23063e-07
2.2572e-07
4.23057e-07
5.30653e-07
6.00741e-07
8.26726e-07
-2.19863e-07
-3.46528e-08
-8.14951e-08
3.02208e-07
3.04668e-07
2.14347e-08
8.30244e-08
1.99362e-07
-2.26951e-08
2.29076e-07
6.02981e-08
7.58731e-07
6.69154e-07
1.8254e-06
1.95287e-06
1.35851e-06
1.34894e-06
1.39576e-06
1.24444e-06
1.22855e-06
1.06586e-06
1.91127e-07
1.83277e-07
2.57678e-07
2.89032e-07
6.54887e-07
6.44943e-07
7.17585e-07
6.89672e-07
4.56893e-07
4.54929e-07
4.10563e-07
3.83214e-07
2.82048e-07
2.54332e-07
-6.24038e-08
-5.56905e-08
4.06377e-08
4.74799e-08
5.65842e-09
-5.06789e-10
2.8558e-09
-6.42657e-09
-6.69059e-09
-2.01984e-08
-2.08117e-08
-3.8396e-08
5.0582e-08
3.68452e-08
7.55641e-08
7.95549e-08
1.25473e-07
1.09096e-07
2.0923e-07
2.17577e-07
1.36955e-07
1.38909e-07
1.04049e-07
1.1542e-07
1.00606e-07
1.03042e-07
1.16275e-07
1.41487e-09
1.39823e-09
3.13435e-09
3.37428e-09
1.79456e-09
1.69095e-09
1.70659e-09
1.80392e-09
9.98229e-10
9.66352e-10
6.14155e-10
6.5543e-10
2.28491e-10
2.09653e-10
3.28606e-10
3.21285e-10
9.57501e-10
9.82605e-10
3.41588e-08
1.78455e-07
3.69459e-08
-3.00012e-08
-2.41141e-08
-2.09913e-07
-1.26078e-07
-1.56773e-07
-1.29024e-07
-1.55137e-10
-1.62032e-10
2.11517e-09
2.29671e-09
-3.62966e-08
-3.34222e-08
-3.22315e-08
-3.43407e-08
-1.20558e-07
-1.38438e-07
6.98384e-07
8.48619e-07
6.3757e-07
6.23462e-07
4.23717e-07
4.31298e-07
3.27846e-07
1.66565e-07
1.35177e-07
2.00109e-07
-4.18603e-09
-1.13983e-07
-2.25054e-08
-7.44485e-08
1.203e-06
2.11583e-06
1.74653e-06
1.7311e-06
1.65079e-06
1.63612e-06
1.59374e-06
2.29406e-06
2.53736e-06
1.49683e-07
1.51167e-07
2.17264e-07
1.96668e-07
2.73914e-07
2.47135e-07
8.53414e-07
7.5332e-07
1.57378e-07
1.78998e-07
9.22464e-08
2.05602e-08
3.03046e-08
-5.39854e-08
-2.3683e-07
-8.56968e-08
-1.36681e-07
-8.19917e-08
-1.46575e-08
9.37797e-08
5.45129e-07
5.88305e-07
1.19713e-06
1.15504e-06
1.63833e-06
1.57275e-06
1.32427e-06
1.48782e-06
1.77651e-06
1.69285e-06
1.18386e-06
1.25116e-06
2.16204e-07
2.14681e-07
3.64965e-07
3.24688e-07
4.79571e-07
5.45446e-07
5.12837e-07
5.15665e-07
6.49748e-07
5.88294e-07
3.58508e-07
3.5918e-07
3.8481e-07
3.97132e-07
2.7587e-07
2.93197e-07
-3.88815e-08
-4.3375e-08
-1.19531e-07
-9.70956e-08
5.13084e-08
6.08522e-08
2.65191e-08
3.36636e-08
1.23033e-08
1.94148e-08
1.22933e-08
2.19853e-08
3.88621e-09
-4.37042e-09
-2.94288e-09
-1.53979e-08
-1.52546e-08
-3.09344e-08
6.44088e-08
7.79091e-08
4.74449e-08
3.52353e-08
1.00104e-07
1.02757e-07
8.68811e-08
9.42558e-08
1.14129e-07
9.9741e-08
1.4415e-07
1.67365e-07
1.40328e-07
1.36159e-07
2.48444e-07
2.52173e-07
1.63967e-07
1.71938e-07
1.35667e-07
1.2784e-07
1.15668e-07
1.04182e-07
8.60759e-08
7.78784e-08
1.75785e-09
1.73739e-09
1.2587e-09
1.28021e-09
2.22894e-09
2.36227e-09
1.35506e-09
1.36015e-09
1.01082e-09
1.06717e-09
1.27744e-09
1.25364e-09
7.19452e-10
6.68714e-10
3.44769e-10
3.54153e-10
2.29702e-10
2.48339e-10
2.37725e-10
2.40708e-10
3.58721e-10
3.16107e-10
6.85452e-10
6.201e-10
4.92539e-10
4.87258e-10
-6.5245e-08
-2.98851e-08
3.59945e-07
2.07829e-07
-4.86218e-08
-4.59086e-08
2.91069e-08
6.61536e-09
-2.41258e-08
2.05153e-10
-1.09185e-07
-9.93623e-08
-1.41048e-10
-1.44496e-10
-9.93389e-13
3.08158e-11
-2.10618e-09
-2.53209e-09
-5.32441e-09
-4.55837e-09
-1.62805e-08
-1.82202e-08
-3.33602e-08
-4.21549e-08
-2.04223e-08
-4.01267e-08
5.76998e-07
4.6677e-07
8.28036e-07
9.52481e-07
9.88206e-07
1.08624e-06
5.79312e-07
6.48904e-07
4.7344e-07
4.83607e-07
3.03413e-07
3.33849e-07
2.35024e-07
2.3392e-07
-1.01093e-07
-1.2743e-07
9.61037e-08
8.80385e-08
3.53319e-08
1.02646e-08
-2.09322e-08
2.5004e-07
1.60015e-07
1.16537e-06
1.09076e-06
1.89356e-06
1.49835e-06
1.46701e-06
1.41508e-06
2.24102e-06
2.48739e-06
1.35861e-07
1.37157e-07
2.5515e-07
2.31171e-07
2.01629e-07
2.03853e-07
6.59664e-07
7.28841e-07
9.4998e-07
1.08981e-06
-1.23902e-08
3.34161e-08
-1.35394e-07
1.12505e-08
9.83611e-08
9.51767e-08
2.0757e-07
-2.09727e-08
3.07586e-07
2.8996e-07
2.44165e-07
6.4059e-08
8.15189e-09
-9.36241e-08
1.10934e-08
6.73341e-07
6.15325e-07
1.6963e-06
1.55461e-06
1.51456e-06
1.52281e-06
1.58284e-06
1.40799e-06
2.59881e-07
1.76329e-07
2.56407e-07
2.63645e-07
2.2597e-07
4.7455e-07
5.30852e-07
5.66011e-07
4.99303e-07
6.25179e-07
7.29785e-07
6.14449e-07
6.37756e-07
4.90567e-07
5.24784e-07
3.05811e-07
3.14278e-07
4.03968e-07
4.05205e-07
3.51731e-07
3.14951e-07
-1.98013e-08
-2.35818e-08
-4.42028e-08
-3.90443e-08
-8.32651e-08
-9.30454e-08
-5.72816e-08
-6.5279e-08
3.32825e-08
4.43508e-08
4.75002e-08
5.60049e-08
2.81449e-08
3.61086e-08
1.84446e-08
1.19847e-08
1.14018e-08
2.22543e-08
-5.383e-10
-1.17297e-08
-9.77844e-09
-2.47986e-08
6.90233e-08
8.43274e-08
8.29978e-08
8.74412e-08
7.18511e-08
6.41233e-08
1.54417e-07
1.40889e-07
1.51924e-07
1.30334e-07
1.60513e-07
1.50807e-07
2.00288e-07
1.98882e-07
2.2499e-07
1.68068e-07
1.64565e-07
1.52269e-07
1.76425e-07
9.40625e-08
9.40614e-08
1.13347e-07
1.2596e-07
8.31526e-08
9.2115e-08
2.18666e-08
2.32698e-08
1.75347e-09
1.75003e-09
1.28067e-09
1.28281e-09
1.48528e-09
1.49658e-09
2.45797e-09
2.29727e-09
1.74502e-09
1.85257e-09
1.72013e-09
1.82113e-09
1.00504e-09
9.50192e-10
9.25284e-10
9.37533e-10
6.84745e-10
6.59226e-10
7.30383e-10
7.6495e-10
6.57684e-10
6.96511e-10
3.95542e-10
4.13957e-10
2.74706e-10
2.52989e-10
3.02645e-10
3.07584e-10
3.10648e-10
3.13498e-10
2.4546e-10
2.48215e-10
3.55039e-10
3.1346e-10
3.64097e-10
3.20951e-10
7.2038e-10
6.8764e-10
3.28117e-10
1.51653e-10
2.68771e-10
-1.59964e-08
-1.98666e-08
3.98113e-07
2.41383e-07
4.30143e-07
4.36633e-07
3.8599e-07
4.48335e-07
6.59343e-07
-5.44228e-08
-4.82132e-08
2.27091e-08
4.03226e-08
9.95887e-09
2.8962e-08
-6.40957e-08
-9.33545e-08
-2.56371e-08
-3.9852e-08
6.59685e-09
5.30174e-09
-5.16272e-11
-4.66924e-11
-1.45508e-10
-1.49371e-10
-1.66377e-10
-1.70215e-10
-7.78162e-11
2.74815e-11
9.25188e-09
9.90456e-09
1.67107e-09
1.92622e-09
-2.85633e-09
-2.32961e-09
-3.84629e-09
-3.20295e-09
-2.15761e-08
-1.93984e-08
-3.74813e-08
-1.85894e-08
-4.21206e-08
-3.97764e-08
-3.39024e-08
3.01155e-07
3.55984e-07
7.10485e-07
5.01931e-07
8.17635e-07
9.71428e-07
7.36103e-07
6.49143e-07
6.84254e-07
7.18447e-07
4.66509e-07
4.94844e-07
3.0906e-07
3.04272e-07
3.78823e-07
4.25093e-07
1.85006e-07
1.91303e-07
-6.97401e-08
-7.69425e-08
1.21652e-07
1.1633e-07
8.4181e-09
7.33449e-08
2.31982e-07
1.31523e-07
1.25856e-06
1.34352e-06
1.12104e-06
1.10348e-06
1.39159e-06
1.22372e-06
2.06548e-06
1.84452e-06
1.65155e-07
1.66815e-07
2.09197e-07
1.89645e-07
3.19699e-07
4.20341e-07
6.67552e-07
6.02818e-07
1.01293e-06
1.11555e-06
1.16032e-07
1.01301e-07
-7.70817e-08
-9.7049e-08
-7.74911e-08
-1.49181e-07
7.24687e-08
6.54505e-08
2.20844e-08
2.60964e-09
-7.94822e-08
-7.01746e-08
2.26868e-07
1.88431e-07
-4.96516e-08
2.64231e-09
1.3974e-06
1.6804e-06
1.28373e-06
1.23125e-06
1.47079e-06
1.30121e-06
1.50321e-06
1.58456e-06
3.15253e-07
3.07754e-07
3.03267e-07
4.14946e-07
4.67129e-07
5.78182e-07
5.11235e-07
7.43134e-07
7.35395e-07
5.60955e-07
5.8507e-07
3.1882e-07
3.19298e-07
3.43651e-07
3.66917e-07
-3.91928e-08
-3.49383e-08
-4.84823e-08
-5.39456e-08
-9.06729e-08
-7.887e-08
-5.22875e-08
-4.49974e-08
-6.47644e-08
5.53811e-08
6.61323e-08
4.36916e-08
3.761e-08
1.22486e-08
2.01933e-08
2.30845e-08
1.1074e-08
2.63659e-09
2.18193e-08
1.10788e-07
1.13847e-07
6.01732e-08
5.39997e-08
8.55254e-08
7.90102e-08
1.14575e-07
1.0515e-07
1.55148e-07
1.70474e-07
1.44522e-07
1.36312e-07
1.56462e-07
1.59045e-07
2.80496e-07
2.83984e-07
2.83427e-07
2.79347e-07
2.00426e-07
1.86062e-07
1.84226e-07
8.50773e-08
8.52027e-08
1.20244e-07
1.34596e-07
8.75237e-08
9.70493e-08
1.75047e-09
1.74324e-09
1.73327e-09
1.7298e-09
1.30786e-09
1.32387e-09
1.29378e-09
1.30931e-09
2.46204e-09
2.58101e-09
2.37796e-09
2.54551e-09
1.79432e-09
1.90223e-09
1.41316e-09
1.34475e-09
1.12787e-09
1.09451e-09
1.21219e-09
1.23304e-09
8.92214e-10
9.05385e-10
8.07656e-10
7.83436e-10
4.41993e-10
4.24601e-10
7.14458e-10
7.36439e-10
5.52458e-10
5.23557e-10
7.09215e-10
7.47366e-10
6.25099e-10
6.6258e-10
3.08939e-10
2.91044e-10
3.66257e-10
3.78309e-10
2.71985e-10
2.91727e-10
2.8609e-10
2.95884e-10
3.17926e-10
3.25062e-10
2.54247e-10
2.51691e-10
3.53172e-10
3.12217e-10
3.1668e-10
3.16826e-10
5.72268e-10
5.60032e-10
6.88595e-10
7.03769e-10
5.02997e-10
4.99005e-10
4.16593e-10
4.09309e-10
2.6536e-07
2.24761e-07
2.0434e-07
-3.00807e-08
-4.34079e-08
1.72842e-07
6.24855e-08
1.23441e-07
3.24835e-08
3.67932e-09
3.24743e-09
3.38041e-07
3.06833e-07
-5.70416e-08
-5.63007e-08
-4.05058e-08
-3.5794e-08
2.77736e-08
2.46114e-09
-2.39819e-07
-7.04806e-08
-1.18046e-07
-8.92007e-08
6.55036e-09
7.19895e-09
3.98764e-09
4.22112e-09
-4.21257e-10
-4.32639e-10
-1.52664e-10
-1.5453e-10
-1.49688e-10
-1.45538e-10
-1.5401e-10
-1.58732e-10
-1.19273e-10
-2.57949e-11
-1.97282e-11
-2.78955e-11
3.98851e-08
4.35664e-08
1.82009e-09
1.9947e-09
2.13125e-09
3.03921e-09
3.04265e-08
3.31586e-08
1.1786e-12
-4.12848e-10
-5.48738e-09
-6.36824e-09
-1.95517e-08
-1.75884e-08
-2.47816e-08
-2.6256e-08
-3.1618e-08
-2.71384e-08
-3.29116e-08
-1.10326e-07
7.44296e-07
6.48657e-07
1.10489e-06
9.73418e-07
5.59657e-07
5.317e-07
4.60152e-07
5.16021e-07
3.39057e-07
3.44502e-07
2.44514e-07
2.08867e-07
2.17498e-07
2.60311e-07
-1.14212e-07
-7.37885e-08
-6.75985e-08
-6.31078e-08
-4.953e-08
1.41e-07
1.1839e-07
1.79299e-08
2.74106e-08
6.7371e-07
3.82681e-07
5.19479e-07
3.74481e-07
8.51736e-07
7.40084e-07
1.31925e-06
1.70225e-06
1.50742e-06
1.2541e-06
1.21716e-06
1.8628e-07
1.70532e-07
1.56017e-07
1.61425e-07
2.40449e-07
2.65963e-07
5.90593e-07
4.88811e-07
4.03458e-07
2.89288e-07
3.86616e-07
1.91112e-07
1.03814e-07
5.40208e-08
8.28106e-08
-7.76394e-10
5.82058e-08
-1.08836e-07
8.4599e-08
1.78863e-07
1.57017e-07
1.16511e-07
8.26033e-08
4.19077e-08
3.93273e-08
-5.89741e-08
-5.75817e-08
1.18339e-07
5.71044e-07
4.76951e-07
1.06161e-06
1.06981e-06
1.36923e-06
1.44102e-06
1.20959e-06
1.20474e-06
3.89895e-07
4.00696e-07
3.03913e-07
2.98533e-07
4.06218e-07
4.65437e-07
5.27344e-07
5.78148e-07
4.85744e-07
5.02884e-07
6.52208e-07
6.57842e-07
3.52769e-07
3.4227e-07
-2.91745e-08
-2.55448e-08
-5.04251e-08
-4.37504e-08
-4.94276e-08
-4.40817e-08
-1.03933e-07
-1.13304e-07
-3.92083e-08
-3.28397e-08
-7.648e-08
-7.4239e-08
4.15683e-08
3.17544e-08
4.39441e-08
5.16107e-08
7.8833e-09
2.29631e-08
7.70144e-08
7.763e-08
6.45793e-08
5.99091e-08
9.57871e-08
1.04131e-07
1.03954e-07
9.1397e-08
1.51355e-07
1.56241e-07
1.30267e-07
1.23048e-07
1.77845e-07
1.77239e-07
2.5283e-07
2.50048e-07
2.20413e-07
2.24464e-07
2.22381e-07
2.05775e-07
8.40606e-08
8.20471e-08
7.70176e-08
7.7064e-08
1.0196e-07
1.07785e-07
1.76439e-09
1.7727e-09
1.30312e-09
1.31962e-09
1.32382e-09
1.3187e-09
1.1005e-09
1.04223e-09
1.45099e-09
1.48203e-09
2.98895e-09
3.06641e-09
2.73002e-09
2.63437e-09
2.15224e-09
2.02377e-09
1.96774e-09
1.90511e-09
1.74085e-09
1.84068e-09
1.25862e-09
1.32683e-09
9.11903e-10
8.96812e-10
1.25613e-09
1.23491e-09
1.03928e-09
9.99548e-10
7.6975e-10
7.42729e-10
6.44863e-10
6.19892e-10
7.10015e-10
6.39647e-10
6.6121e-10
6.82336e-10
7.06816e-10
6.52943e-10
5.29129e-10
4.99666e-10
7.32444e-10
7.68296e-10
7.3484e-10
7.13364e-10
3.88443e-10
3.77503e-10
3.51097e-10
3.33767e-10
3.73591e-10
3.92483e-10
3.78945e-10
3.93538e-10
2.87172e-10
3.06553e-10
4.42026e-10
4.61167e-10
3.60487e-10
3.45338e-10
1.05319e-10
1.21959e-10
2.22199e-10
2.22983e-10
2.49989e-10
2.43237e-10
2.89385e-10
2.93056e-10
3.5705e-10
3.14777e-10
3.02005e-10
3.04954e-10
5.71584e-10
5.59639e-10
6.32843e-10
6.20862e-10
5.64745e-10
5.57603e-10
4.81013e-10
4.85237e-10
4.78456e-10
4.83559e-10
3.82134e-10
3.77214e-10
2.54906e-10
2.30119e-10
1.56532e-07
1.85613e-07
-6.19428e-10
8.25572e-09
1.45028e-07
1.63265e-07
1.45501e-08
-2.35157e-08
1.02353e-07
1.47771e-08
1.47172e-07
6.01345e-08
6.40136e-08
9.70197e-07
1.11585e-06
-7.15029e-08
-5.90834e-08
-8.96026e-08
-3.62512e-08
-4.29602e-08
-1.82732e-08
-3.75125e-08
1.72411e-07
-1.31723e-08
1.0449e-07
-2.37872e-08
-3.45967e-08
-8.43794e-08
-7.80467e-08
-1.89467e-08
-1.36102e-08
5.03492e-09
6.29935e-09
-2.11925e-10
-2.16688e-10
-4.03264e-10
-3.70224e-10
5.69509e-11
7.0112e-11
-1.17371e-10
-1.22043e-10
-1.57108e-10
-1.53198e-10
-8.8797e-11
-6.07944e-11
-2.5767e-11
-1.76315e-11
2.62296e-08
2.8561e-08
3.1347e-08
3.41294e-08
2.02451e-09
1.95753e-09
-3.47604e-10
-6.13956e-10
-1.74278e-09
-2.52205e-09
-2.95293e-09
-3.27746e-09
-8.43217e-10
-1.35938e-09
-2.74726e-09
-2.21796e-09
-7.53732e-09
-6.53506e-09
-1.83019e-08
-1.6442e-08
-2.04362e-08
-2.27966e-08
-3.51862e-08
-3.74974e-08
4.56127e-07
4.2292e-07
5.08898e-07
4.19175e-07
9.92532e-07
1.13024e-06
8.02548e-07
8.95534e-07
4.40447e-07
4.13614e-07
3.78832e-07
3.84962e-07
2.96962e-07
3.31039e-07
2.63725e-07
2.97999e-07
-6.09327e-08
-2.49729e-08
1.54682e-08
4.63375e-08
9.15741e-08
1.55143e-07
1.51654e-07
5.14404e-08
5.65807e-08
3.80655e-07
3.31767e-07
1.14989e-06
9.88987e-07
1.45829e-06
1.67345e-06
1.28768e-07
1.32987e-07
1.78018e-07
1.71859e-07
1.03781e-06
1.14661e-06
5.33516e-07
6.03677e-07
8.07924e-07
6.71858e-07
7.02492e-08
7.33562e-08
-1.55351e-08
1.51257e-07
1.03486e-07
2.52456e-07
1.92338e-07
8.21213e-08
7.6035e-09
1.15722e-07
1.1149e-07
-5.63058e-08
-8.29009e-08
-8.64595e-08
-9.57393e-08
1.64497e-07
1.95701e-07
9.23336e-08
6.59149e-08
8.66169e-08
8.5944e-09
-5.0527e-08
-6.95087e-09
-3.28027e-08
-2.77816e-08
1.21225e-06
8.5692e-07
9.49591e-07
7.79853e-07
1.1942e-06
1.20589e-06
1.84726e-06
2.12122e-06
1.80482e-06
9.49842e-07
9.51725e-07
1.18949e-06
1.15864e-06
4.40588e-07
4.5221e-07
2.89157e-07
3.21887e-07
3.29494e-07
3.65001e-07
5.10244e-07
4.50698e-07
5.65671e-07
5.45284e-07
-2.3324e-08
-2.01183e-08
-3.1046e-08
-3.47471e-08
-3.81196e-08
-3.33119e-08
-7.6101e-08
-6.87841e-08
-9.434e-08
-1.24033e-07
-1.02749e-07
-1.10177e-07
-1.07564e-07
-7.15773e-08
-8.63849e-08
-5.71725e-08
3.8791e-08
2.99358e-08
8.34759e-08
8.47837e-08
6.57475e-08
7.07411e-08
6.58839e-08
5.89359e-08
1.15948e-07
1.26597e-07
9.46568e-08
8.35475e-08
1.68498e-07
1.74232e-07
1.78904e-07
1.7781e-07
2.25267e-07
2.23015e-07
2.46522e-07
2.28205e-07
9.29936e-08
9.07557e-08
3.39147e-09
3.27037e-09
1.36038e-09
1.33614e-09
1.22736e-09
1.20509e-09
1.28072e-09
1.28035e-09
1.24871e-09
1.26899e-09
1.02455e-09
1.07321e-09
1.20896e-09
1.20733e-09
1.90461e-09
1.82171e-09
2.55001e-09
2.40156e-09
2.27502e-09
2.34886e-09
2.44323e-09
2.61472e-09
1.87229e-09
1.98015e-09
2.09115e-09
2.22572e-09
2.01954e-09
1.74465e-09
1.8449e-09
1.64754e-09
1.59664e-09
1.51272e-09
1.21938e-09
1.1562e-09
6.44593e-10
6.24597e-10
9.29792e-10
9.56083e-10
1.178e-09
1.19582e-09
1.11988e-09
1.10401e-09
1.17041e-09
1.1699e-09
1.12138e-09
1.16414e-09
7.90048e-10
8.11175e-10
6.86435e-10
6.61011e-10
5.30168e-10
5.05482e-10
5.47762e-10
5.28727e-10
6.74412e-10
5.44353e-10
7.96442e-10
7.81323e-10
6.33831e-10
5.95433e-10
6.74087e-10
6.35348e-10
4.91309e-10
4.69114e-10
3.53334e-10
3.77736e-10
3.76964e-10
3.60892e-10
3.46011e-10
3.58992e-10
3.11669e-10
2.95247e-10
2.31812e-10
2.47399e-10
5.4764e-10
5.36375e-10
4.3916e-10
4.56469e-10
3.14431e-10
3.2635e-10
3.84093e-10
1.48602e-10
1.46469e-10
3.31813e-10
3.3387e-10
2.9516e-10
2.97023e-10
2.85463e-10
2.67906e-10
2.66154e-10
2.63644e-10
2.73897e-10
2.69917e-10
2.96663e-10
2.93818e-10
3.1015e-10
3.07721e-10
3.1184e-10
3.10511e-10
3.6298e-10
3.19844e-10
9.68333e-10
9.93059e-10
6.27235e-10
6.30043e-10
5.2805e-10
5.30713e-10
5.00958e-10
4.91578e-10
4.61919e-10
4.67052e-10
4.89804e-10
4.9397e-10
4.1591e-10
4.11577e-10
3.61412e-10
3.62956e-10
2.80932e-10
3.29857e-10
-7.00659e-08
-8.22725e-08
2.50887e-08
3.28531e-08
-4.03561e-08
3.79046e-08
3.67367e-08
2.07079e-08
-1.49511e-08
7.68204e-08
-2.55685e-08
2.77119e-07
-2.79998e-09
-1.88091e-09
1.29772e-07
1.22112e-07
8.47772e-07
8.63015e-07
2.69702e-07
3.0717e-07
-6.52013e-08
-6.43023e-08
4.18132e-08
5.15277e-08
-2.27301e-08
-7.20071e-09
7.23154e-09
6.3879e-08
1.25041e-07
2.45166e-08
-3.36132e-08
-6.57851e-08
-8.54927e-08
-2.2442e-08
-4.85945e-08
-9.93187e-08
-7.46126e-09
-7.35674e-09
4.04008e-09
4.70987e-09
1.03507e-09
-1.18693e-10
-2.46325e-10
-2.43682e-10
-3.03373e-10
-2.97006e-10
-4.21943e-10
-3.86776e-10
6.56959e-11
6.81604e-11
-1.04566e-10
-1.01549e-10
-1.2833e-10
-1.25303e-10
-1.58967e-10
-1.62694e-10
-1.64644e-10
-1.68198e-10
-1.13204e-10
-1.18246e-10
-2.0557e-11
1.17415e-11
-5.19936e-12
-1.38779e-11
1.58175e-10
1.6921e-10
4.28056e-08
4.66454e-08
3.67924e-08
4.00146e-08
3.40879e-09
3.30804e-09
5.12438e-09
4.85563e-09
1.5374e-09
-4.27716e-09
-1.94409e-09
-3.97896e-09
-3.63246e-09
2.20967e-08
2.04143e-08
-5.68895e-09
-4.83716e-09
-1.80929e-09
-1.36922e-09
-6.28077e-09
-5.40208e-09
-1.00343e-08
-1.13832e-08
-2.34165e-08
-2.09549e-08
-2.06161e-08
-1.85818e-08
-2.69819e-08
-2.48298e-08
-1.19999e-07
-1.32721e-07
4.8873e-07
4.72485e-07
4.70397e-07
3.81114e-07
8.80474e-07
8.76456e-07
9.91042e-07
1.10626e-06
3.92951e-07
3.68378e-07
5.30011e-07
5.37337e-07
2.75416e-07
2.73013e-07
-1.24994e-07
-1.40646e-07
-5.90065e-08
1.33093e-07
1.44414e-06
1.52948e-06
1.46423e-07
1.41691e-07
1.25239e-06
5.41855e-07
4.89276e-07
7.55727e-07
5.50917e-07
1.09582e-08
3.51846e-08
1.12022e-07
2.9621e-07
2.25282e-07
1.90737e-07
4.55743e-08
-9.30729e-09
-3.0787e-08
-1.17863e-07
-1.18049e-07
-1.33248e-07
1.69739e-07
2.18668e-07
6.48983e-08
6.20007e-08
1.04036e-08
3.68588e-08
-3.15018e-08
5.62303e-07
4.52934e-07
3.94938e-07
7.32917e-07
7.46503e-07
7.94537e-07
8.43957e-07
9.80858e-07
8.51007e-07
1.51533e-06
1.51854e-06
1.87826e-06
1.83895e-06
8.39917e-07
8.37609e-07
1.0285e-06
1.05608e-06
3.95865e-07
4.21625e-07
3.43288e-07
3.54402e-07
4.19002e-07
3.74011e-07
-2.25213e-08
-1.84246e-08
-1.01814e-08
-8.0554e-09
-1.74582e-08
-2.23942e-08
-2.69117e-08
-5.0249e-08
-5.70531e-08
-7.02935e-08
-7.46915e-08
-1.25147e-07
-1.22242e-07
-9.54903e-08
-3.80833e-08
-4.85828e-08
-7.28649e-08
1.115e-07
1.1775e-07
9.10825e-08
9.3186e-08
5.49575e-08
4.94648e-08
1.27741e-07
1.39793e-07
1.60116e-07
1.59247e-07
2.09446e-07
2.17122e-07
1.0011e-09
1.07762e-09
6.86276e-09
6.58066e-09
1.41276e-09
1.44504e-09
3.18682e-09
3.28467e-09
1.38915e-09
1.3605e-09
1.27546e-09
1.26975e-09
1.25257e-09
1.26739e-09
1.30336e-09
1.30824e-09
1.28272e-09
9.81431e-10
9.10626e-10
1.29791e-09
1.30415e-09
1.2479e-09
1.20697e-09
1.44154e-09
1.44753e-09
2.31554e-09
2.41954e-09
2.85122e-09
2.82613e-09
2.92659e-09
2.96992e-09
2.93326e-09
3.15127e-09
2.80678e-09
2.06405e-09
2.09863e-09
2.1472e-09
2.28602e-09
1.73358e-09
1.82836e-09
1.61377e-09
1.62694e-09
1.09945e-09
1.15749e-09
1.19085e-09
1.2573e-09
7.40205e-10
7.20246e-10
9.38309e-10
9.13354e-10
1.09883e-09
1.07001e-09
1.15986e-09
1.31599e-09
1.29421e-09
9.13247e-10
8.79354e-10
9.76548e-10
9.89142e-10
1.08787e-09
1.09233e-09
8.14622e-10
7.87957e-10
8.74693e-10
8.52751e-10
6.72546e-10
7.1391e-10
5.67343e-10
5.43044e-10
5.56955e-10
5.5218e-10
5.73289e-10
6.45799e-10
6.19018e-10
7.44893e-10
7.08668e-10
5.73333e-10
5.92553e-10
6.71176e-10
6.94101e-10
5.81755e-10
6.19365e-10
4.26536e-10
4.09709e-10
4.08907e-10
3.22598e-10
3.07074e-10
4.14738e-10
4.34926e-10
3.75636e-10
3.13442e-10
3.27159e-10
2.59384e-10
2.7555e-10
2.65768e-10
7.09829e-10
6.94774e-10
4.56749e-10
4.74993e-10
3.87722e-10
4.08983e-10
3.52967e-10
3.64961e-10
2.94264e-10
2.89554e-10
2.71243e-10
2.7983e-10
3.8435e-10
2.83401e-10
2.02918e-10
3.03539e-10
3.05837e-10
2.29023e-10
2.33769e-10
2.47648e-10
2.45703e-10
2.63056e-10
2.56553e-10
2.79529e-10
2.75481e-10
3.00211e-10
2.97901e-10
3.04903e-10
3.02138e-10
2.94495e-10
2.94918e-10
3.08355e-10
3.0633e-10
3.20345e-10
3.22502e-10
8.78331e-10
8.56169e-10
6.51066e-10
6.3537e-10
6.02578e-10
6.07635e-10
6.3675e-10
6.42617e-10
6.39524e-10
6.49021e-10
5.46484e-10
5.52912e-10
5.06703e-10
5.00523e-10
5.24631e-10
5.3674e-10
4.72465e-10
4.76567e-10
4.2436e-10
4.16317e-10
4.08785e-10
4.06539e-10
3.25485e-10
3.24679e-10
2.8295e-10
4.14267e-10
2.9812e-10
1.9691e-09
2.00526e-09
6.22377e-07
5.48842e-07
4.1471e-08
1.52896e-07
1.02323e-07
4.36694e-08
2.19381e-09
1.01514e-07
1.38781e-07
2.62382e-08
-2.70078e-08
-1.88359e-07
3.41773e-09
3.03061e-09
7.22862e-08
6.77674e-08
3.17297e-07
2.79966e-07
7.09531e-07
7.15899e-07
9.67674e-07
1.07134e-06
6.66526e-07
7.11408e-07
1.90036e-07
1.13073e-07
-7.96282e-09
9.15073e-09
4.1908e-08
6.12693e-08
-5.31394e-08
-4.50143e-08
-3.63931e-08
1.37601e-07
5.61885e-08
1.78329e-08
1.63195e-07
2.05554e-07
1.00086e-08
-1.98525e-08
-3.90547e-08
4.08719e-07
3.58404e-07
3.39049e-07
-2.12348e-08
-2.02397e-08
-1.93651e-08
1.00388e-08
8.16074e-09
3.61611e-10
3.781e-10
-3.53618e-10
-3.53814e-10
-2.27416e-10
-2.3361e-10
-1.81002e-10
-1.79755e-10
-2.94853e-10
-2.89371e-10
-4.39947e-10
-4.0295e-10
-2.82834e-10
-2.88478e-10
5.54988e-11
5.32949e-11
-1.3386e-10
-1.35874e-10
-1.30574e-10
-1.26634e-10
-1.31613e-10
-1.28964e-10
-1.50506e-10
-1.55278e-10
-1.45211e-10
-1.4093e-10
-1.60085e-10
-1.66871e-10
-1.60024e-10
-1.7404e-10
-3.00195e-11
-2.36353e-11
3.60296e-11
6.12912e-11
-3.5935e-11
-3.7985e-11
-4.26163e-11
-1.29816e-11
-2.97948e-12
1.66959e-11
2.72749e-10
2.5012e-10
3.62878e-08
3.95027e-08
3.09198e-08
2.85142e-08
3.7973e-09
3.9438e-09
4.63481e-09
4.87915e-09
6.79275e-10
1.38483e-09
4.34005e-10
1.94436e-11
-3.15367e-09
-2.67888e-09
1.59997e-08
1.48346e-08
-1.51498e-08
-1.87535e-08
-5.75698e-10
-2.62147e-10
-3.39287e-09
-4.06703e-09
-7.02129e-09
-6.06772e-09
-1.28764e-08
-1.44902e-08
-3.00877e-08
-3.32227e-08
-1.69284e-08
-1.51454e-08
-2.50154e-08
-2.28651e-08
-2.23162e-08
-2.00261e-08
8.95654e-09
8.74964e-09
5.82702e-07
6.68883e-07
6.9848e-07
4.10964e-07
3.69049e-07
7.86316e-07
7.7559e-07
4.11307e-07
-9.57099e-08
1.15434e-08
9.15547e-09
1.04594e-06
9.63412e-07
1.22173e-06
4.84668e-07
4.42536e-07
1.71662e-07
1.35403e-07
2.72897e-07
2.40031e-07
2.58499e-07
1.30687e-07
-4.0625e-08
-1.2216e-07
-1.34307e-07
-5.10817e-08
-7.63187e-08
-1.72446e-07
1.42365e-07
1.76553e-07
-3.82974e-10
-8.65174e-09
3.92221e-07
2.62844e-07
4.46954e-07
5.24016e-07
4.07605e-07
9.36114e-07
1.14018e-06
8.85276e-07
9.16262e-07
8.68627e-07
7.60083e-07
1.35242e-06
1.35806e-06
1.64836e-06
1.69637e-06
8.09572e-07
8.30205e-07
1.07078e-06
1.07469e-06
3.71473e-07
3.46465e-07
-2.68791e-08
-3.11765e-08
-6.45018e-09
-1.21247e-08
-3.04701e-08
-3.44834e-08
-5.8607e-08
-6.47475e-08
-1.10935e-07
-1.04141e-07
-2.712e-08
1.06428e-07
1.00836e-07
1.2272e-07
1.26271e-07
7.21598e-08
7.78304e-08
1.98282e-07
1.91894e-07
-9.94366e-09
-1.12452e-08
2.17598e-08
2.12804e-08
6.70445e-09
6.54096e-09
1.26702e-09
1.24725e-09
1.50902e-09
1.5072e-09
3.02905e-09
3.14487e-09
1.30865e-09
1.32889e-09
1.8024e-09
1.82501e-09
8.15678e-10
7.66453e-10
1.28521e-09
1.3028e-09
1.29348e-09
1.28881e-09
1.27458e-09
1.2766e-09
1.29132e-09
1.29439e-09
8.95146e-10
8.1232e-10
1.34534e-09
1.35536e-09
1.25152e-09
1.25505e-09
1.38299e-09
1.39942e-09
2.03345e-09
2.09942e-09
2.17443e-09
2.26051e-09
2.76872e-09
2.88378e-09
2.30998e-09
2.23011e-09
3.15806e-09
3.26268e-09
2.86306e-09
2.90845e-09
3.04071e-09
2.82977e-09
1.9467e-09
1.83823e-09
1.65114e-09
1.64688e-09
1.64407e-09
1.73817e-09
1.13089e-09
1.07318e-09
1.22782e-09
1.29483e-09
6.3107e-10
6.09551e-10
7.13689e-10
6.93687e-10
9.19241e-10
8.94247e-10
1.14453e-09
1.16218e-09
1.27375e-09
1.29509e-09
1.27571e-09
1.29729e-09
1.11488e-09
1.08867e-09
1.11373e-09
1.11749e-09
1.03021e-09
1.01825e-09
1.1677e-09
1.16654e-09
1.10789e-09
1.09075e-09
7.5043e-10
7.74324e-10
7.68703e-10
7.91162e-10
6.99203e-10
7.24437e-10
7.55495e-10
7.27817e-10
5.83409e-10
6.08948e-10
6.05644e-10
5.80473e-10
4.9767e-10
5.18342e-10
5.55615e-10
5.34982e-10
6.54301e-10
6.01709e-10
8.38007e-10
8.25376e-10
5.9829e-10
5.62595e-10
5.68624e-10
5.42819e-10
4.80638e-10
5.10222e-10
6.07863e-10
6.45167e-10
4.55446e-10
4.36835e-10
2.96199e-10
2.79525e-10
4.34259e-10
4.56283e-10
3.12433e-10
3.32655e-10
3.27031e-10
3.38481e-10
2.93492e-10
2.82758e-10
5.35558e-10
5.24318e-10
3.69023e-10
3.51846e-10
4.22457e-10
4.41029e-10
2.8566e-10
4.01112e-10
3.41884e-10
3.29366e-10
1.36764e-10
1.34658e-10
1.33193e-10
1.34099e-10
2.6265e-10
2.68601e-10
3.31062e-10
3.3452e-10
3.15093e-10
3.21803e-10
3.00391e-10
3.01572e-10
2.68968e-10
2.68094e-10
2.41825e-10
2.36672e-10
2.55129e-10
2.53978e-10
2.57803e-10
2.6013e-10
3.45847e-10
3.08872e-10
3.03338e-10
3.0162e-10
3.07708e-10
3.06643e-10
3.15013e-10
3.14186e-10
3.65903e-10
3.2286e-10
3.67278e-10
3.2437e-10
9.47197e-10
9.50995e-10
8.63536e-10
8.85158e-10
6.48111e-10
6.64411e-10
6.12924e-10
6.16289e-10
6.75157e-10
6.68033e-10
6.5595e-10
6.58831e-10
5.35557e-10
5.41075e-10
5.29427e-10
5.39465e-10
4.88414e-10
4.97463e-10
4.91057e-10
4.82576e-10
4.75134e-10
4.69882e-10
4.54598e-10
4.09357e-10
3.94215e-10
4.00026e-10
3.49851e-10
3.52975e-10
3.76886e-10
3.7378e-10
3.11813e-10
3.15178e-10
3.03336e-10
2.09797e-09
-6.06644e-10
-1.24063e-07
-1.2981e-07
5.09845e-07
4.45892e-07
-6.6699e-08
-9.57939e-08
1.59487e-07
1.06607e-07
2.12018e-08
8.29451e-08
1.73058e-07
2.07221e-07
2.16094e-07
2.15877e-07
5.19496e-08
1.01588e-07
2.18736e-07
2.75601e-07
-4.61275e-08
-4.17786e-08
1.81581e-08
2.1188e-08
4.58643e-08
6.54986e-08
1.24737e-07
1.10637e-07
3.02488e-07
3.41803e-07
6.35408e-07
6.36696e-07
6.49864e-07
6.78876e-07
9.82002e-07
1.08432e-06
6.33963e-07
5.96315e-07
1.06972e-06
1.01126e-06
2.15994e-07
1.50856e-07
2.95202e-08
6.57116e-09
-4.72901e-09
5.1691e-08
-2.99001e-08
-1.23744e-08
2.38246e-08
6.94602e-08