/*--------------------------------*- C++ -*----------------------------------*\
  =========                 |
  \\      /  F ield         | OpenFOAM: The Open Source CFD Toolbox
   \\    /   O peration     | Website:  https://openfoam.org
    \\  /    A nd           | Version:  7
     \\/     M anipulation  |
\*---------------------------------------------------------------------------*/
FoamFile
{
    version     2.0;
    format      ascii;
    class       volScalarField;
    location    "540";
    object      T;
}
// * * * * * * * * * * * * * * * * * * * * * * * * * * * * * * * * * * * * * //

dimensions      [0 0 0 1 0 0 0];

internalField   nonuniform List<scalar> 
238806
(
0.910424
0.923593
0.686855
0.906473
0.81465
0.930658
0.912733
0.930713
0.926727
0.795495
0.829344
0.830122
0.935111
0.938829
0.708996
0.721123
0.786984
0.797464
0.937765
0.943682
0.932591
0.927498
0.746179
0.700133
0.76704
0.709202
0.732656
0.716246
0.751579
0.753389
0.931774
0.92905
0.856905
0.878496
0.916991
0.917439
0.0265679
0.0227269
0.838432
0.884559
0.873355
0.857225
0.917877
0.9178
0.944012
0.936307
0.764912
0.779638
0.891928
0.898837
0.935923
0.929411
0.936589
0.939768
0.778145
0.764865
0.779679
0.758941
0.816054
0.743801
0.776415
0.778758
0.843758
0.868213
0.877703
0.933472
0.944029
0.924263
0.90818
0.934631
0.936867
0.891567
0.878969
0.902586
0.895922
0.941436
0.936131
0.919276
0.919887
0.88157
0.883509
0.880115
0.8939
0.91013
0.922546
0.928405
0.931061
0.70993
0.717204
0.723152
0.720516
0.836874
0.844135
0.909894
0.870659
0.9154
0.916022
0.838948
0.803692
0.840445
0.935595
0.94766
0.939928
0.936405
0.929493
0.917501
0.910952
0.909092
0.901878
0.886435
0.869386
0.926597
0.937009
0.928331
0.934015
0.928448
0.930218
0.005272
-0.00293034
-5.66264e-05
0.523649
0.496342
0.920202
0.909287
0.931883
0.9134
0.728171
0.652323
0.727093
0.755614
0.866223
0.748017
0.730991
0.855135
0.725062
0.796492
0.925793
0.925364
0.549082
0.709076
0.715269
0.769189
0.868417
0.867237
0.812085
0.946168
0.935607
0.942294
0.94798
0.945646
0.93735
0.946387
0.942653
0.898447
0.892288
0.91803
0.910399
0.895352
0.886011
0.93327
0.929038
0.939811
0.93729
0.941033
0.945757
0.926581
0.927737
0.887167
0.889572
0.0772131
0.068047
0.886176
0.898313
0.401045
0.421467
0.278237
0.921064
0.909973
0.931212
0.934077
0.694063
0.606434
0.904243
0.727769
0.716179
0.757063
0.73
0.811076
0.908845
0.909683
0.939165
0.939252
0.839233
0.821105
0.787991
0.767859
0.813184
0.769954
0.814676
0.758712
0.789894
0.903567
0.922347
0.916479
0.892239
0.920351
0.89965
0.918552
0.920157
0.939089
0.94627
0.728835
0.716754
0.888092
0.879861
0.873696
0.885892
0.802828
0.833404
0.898947
0.905864
0.936436
0.929814
0.931964
0.943485
0.944797
0.940133
0.920959
0.921621
0.880851
0.882032
0.856875
0.859074
0.821304
0.824105
0.726595
0.719684
0.928405
0.926152
0.771197
0.788745
0.413953
0.320565
0.843029
0.842804
0.920124
0.91445
0.935157
0.932472
0.937785
0.937223
0.897565
0.902729
0.821184
0.796247
0.777797
0.789953
0.833456
0.840475
0.867755
0.868792
0.938201
0.939074
0.918797
0.913708
0.911298
0.906519
0.848734
0.859232
0.77166
0.753936
0.846741
0.751419
0.707137
0.863535
0.771832
0.921283
0.902264
0.943191
0.93004
0.938099
0.947182
0.932217
0.928907
0.926718
0.921234
0.93615
0.944744
0.853231
0.862186
0.770266
0.758481
0.890666
0.883514
0.874769
0.860195
0.871854
0.852372
0.847606
0.82005
0.898258
0.890842
0.928368
0.93165
0.922581
0.914399
0.92634
0.931041
0.942824
0.934385
0.920879
0.916985
0.925449
0.920245
0.942371
0.941801
0.655372
0.654617
0.875001
0.87619
0.850459
0.84853
0.881949
0.879922
0.792624
0.788
0.709956
0.71707
0.000921025
0.892098
0.904842
0.610535
0.663951
0.635489
0.629508
0.93622
0.936994
0.607029
0.607006
0.887298
0.788949
0.93261
0.91456
0.934526
0.931855
0.936505
0.930186
0.744279
0.80603
0.716484
0.804623
0.794495
0.787532
0.711519
0.784114
0.935479
0.932755
0.934618
0.917744
0.91754
0.920175
0.914817
0.855841
0.891676
0.796585
0.845199
0.739431
0.71799
0.683106
0.878475
0.886504
0.756213
0.786212
0.92386
0.7596
0.779126
0.753689
0.891602
0.865326
0.82536
0.863216
0.935043
0.943705
0.904782
0.867893
0.910836
0.876037
0.913546
0.910823
0.905808
0.902525
0.929346
0.935538
0.94207
0.947651
0.920763
0.92523
0.946508
0.940486
0.940629
0.941498
0.733587
0.746466
0.92206
0.927623
0.892747
0.886294
0.880604
0.868646
0.843788
0.821093
0.795262
0.777103
0.900945
0.894427
0.932909
0.927444
0.925745
0.917482
0.932438
0.927321
0.941767
0.942102
0.91815
0.9187
0.924322
0.919489
0.942912
0.845318
0.847005
0.883274
0.884317
0.868522
0.866804
0.87773
0.878867
0.853818
0.851728
0.837711
0.840383
0.794677
0.791392
0.490589
0.440079
0.763814
0.767672
0.787451
0.814748
0.803291
0.838954
0.852031
0.311741
0.490453
0.580738
0.561336
0.782829
0.769866
0.900988
0.901917
0.65975
0.663727
0.236982
0.0524855
0.56762
0.363587
0.753202
0.880378
0.938089
0.936273
0.927072
0.910821
0.938424
0.911481
0.912418
0.916466
0.730287
0.700552
0.780141
0.78145
0.724936
0.863163
0.743864
0.910312
0.871866
0.938719
0.925575
0.939548
0.93965
0.917447
0.912619
0.925295
0.924373
0.921628
0.92089
0.905355
0.906288
0.86215
0.876818
0.773475
0.779831
0.7946
0.748907
0.629651
0.786419
0.737141
0.745692
0.753035
0.78746
0.878233
0.870748
0.877187
0.845455
0.921123
0.903031
0.935004
0.934832
0.939347
0.924246
0.933053
0.944818
0.92108
0.923535
0.928507
0.92974
0.943289
0.943866
0.925909
0.921025
0.943576
0.932822
0.924227
0.920153
0.943795
0.935038
0.943458
0.946124
0.773644
0.763243
0.613208
0.701451
0.915763
0.922893
0.908906
0.915581
0.896718
0.902626
0.889389
0.896126
0.884918
0.875115
0.856758
0.836217
0.811644
0.790053
0.907572
0.915199
0.903531
0.897312
0.924776
0.921543
0.935544
0.936606
0.928273
0.920442
0.908338
0.91567
0.923739
0.927593
0.931975
0.923344
0.942046
0.944384
0.94333
0.943383
0.916523
0.916033
0.941226
0.94053
0.362911
0.3555
0.515687
0.52263
0.878434
0.87941
0.885863
0.888246
0.849902
0.851714
0.777553
0.776038
0.776802
0.747501
0.821866
0.81614
0.795921
0.799117
0.253129
0.242071
0.0422103
0.0362174
0.699777
0.705741
0.634591
0.653057
0.74944
0.7261
0.806707
0.767382
0.811357
0.821542
0.871253
0.852646
0.813058
0.82155
0.685763
0.719793
0.812614
0.809608
0.144579
0.137683
0.823929
0.801261
0.855427
0.855478
0.131201
0.135231
0.281977
0.206089
0.0496203
0.0507584
0.888186
0.817186
0.875962
0.875401
0.937422
0.936325
0.934053
0.934261
0.927965
0.911367
0.915934
0.912368
0.904491
0.912807
0.702319
0.551589
0.877803
0.883662
0.821663
0.778639
0.752361
0.731309
0.847414
0.910348
0.874437
0.859309
0.867195
0.940556
0.926672
0.925056
0.925433
0.916775
0.912059
0.934041
0.932785
0.919485
0.91425
0.923344
0.916951
0.904009
0.903197
0.735995
0.754784
0.715408
0.846356
0.822994
0.844602
0.771182
0.64083
0.866296
0.893535
0.897501
0.789455
0.766961
0.747426
0.848881
0.894719
0.900862
0.862232
0.821836
0.943705
0.934398
0.896997
0.854391
0.934835
0.928941
0.93779
0.923288
0.909539
0.908964
0.904702
0.934786
0.93412
0.94414
0.943629
0.947299
0.940436
0.916751
0.931038
0.941866
0.933226
0.924686
0.920489
0.938549
0.939736
0.846101
0.834895
0.777591
0.789876
0.686316
0.660139
0.759798
0.743761
0.899794
0.90609
0.918142
0.924807
0.906747
0.913446
0.904587
0.898601
0.885611
0.893448
0.867101
0.849526
0.828652
0.805389
0.904695
0.912182
0.934201
0.929406
0.933698
0.930184
0.936025
0.93345
0.919118
0.911453
0.938149
0.937858
0.918562
0.922021
0.947876
0.940996
0.941383
0.940311
0.941282
0.915534
0.917619
0.940731
0.941324
0.937873
0.939026
0.914491
0.912791
0.147605
0.205221
0.181575
0.179958
0.892294
0.892249
0.876858
0.875219
0.866904
0.868481
0.882941
0.884033
0.84443
0.842602
0.776573
0.748859
0.847029
0.841054
0.818265
0.820728
0.85759
0.859629
0.84722
0.849439
0.800935
0.797855
0.503913
0.512414
0.362877
0.378088
0.221218
0.211292
-0.00371933
-0.003496
0.251793
0.228782
0.699292
0.693623
-0.00302543
-0.00253301
-0.000315497
0.820522
0.802908
0.849224
0.843822
0.887672
0.937886
0.937533
0.829546
0.859689
0.800276
0.812417
0.894794
0.90194
0.864397
0.879485
0.721377
0.689388
0.703628
0.728415
0.913869
0.912573
0.702739
0.695593
0.800946
0.797465
0.74684
0.731607
0.360563
0.268746
0.919093
0.920049
0.898721
0.89993
0.874985
0.875154
0.855425
0.855258
0.603896
0.602941
0.400578
0.564128
0.457232
0.557377
0.557249
0.875825
0.870314
0.880104
0.741055
0.93247
0.930576
0.916708
0.931118
0.938202
0.934302
0.938444
0.936583
0.909894
0.924298
0.908667
0.925551
0.898175
0.891629
0.723852
0.729095
0.887219
0.891102
0.746273
0.796746
0.750716
0.77035
0.874424
0.911151
0.725867
0.807591
0.915747
0.912819
0.939538
0.939908
0.918122
0.913159
0.931549
0.930371
0.875831
0.902543
0.907483
0.910002
0.903201
0.901234
0.756731
0.764318
0.71078
0.723471
0.732441
0.593858
0.851497
0.866708
0.805115
0.81742
0.739897
0.741919
0.808796
0.789044
0.736339
0.778404
0.728834
0.732716
0.921592
0.905399
0.866685
0.838153
0.927299
0.941386
0.925713
0.930614
0.932456
0.926576
0.924418
0.929048
0.928642
0.921438
0.928946
0.935955
0.944959
0.923863
0.919842
0.941814
0.946621
0.782472
0.79315
0.752204
0.740772
0.684228
0.706239
0.766074
0.778581
0.745887
0.913158
0.92062
0.928569
0.923581
0.894627
0.900575
0.890259
0.880662
0.837196
0.860885
0.925665
0.92224
0.93414
0.931659
0.936345
0.935577
0.936602
0.935164
0.93202
0.936053
0.936512
0.937954
0.928977
0.92223
0.924764
0.919521
0.92358
0.932578
0.946227
0.94377
0.939558
0.91504
0.917118
0.937169
0.938812
0.93197
0.933725
0.650089
0.550381
0.14335
0.200963
0.542929
0.655984
0.528623
0.655859
0.903404
0.904535
0.874592
0.876078
0.86845
0.869887
0.88325
0.881992
0.853499
0.852364
0.698484
0.742134
0.772474
0.744075
0.852315
0.846651
0.81098
0.8076
0.753762
0.720469
0.851076
0.848728
0.853835
0.856011
0.86224
0.864056
0.832911
0.830227
0.836596
0.839181
0.802208
0.805204
0.816542
0.807918
0.425187
0.476173
0.129614
0.137414
0.00156014
0.00102297
0.385808
0.402326
0.630425
0.623946
0.693555
0.699625
0.604193
0.617964
0.654356
0.664434
0.923421
0.917645
0.917414
0.777605
0.756575
0.805527
0.769693
0.71805
0.693893
0.8978
0.896308
0.913778
0.916814
0.786669
0.801954
0.823809
0.835636
0.860074
0.838113
0.660459
0.729302
0.707391
0.740391
0.929681
0.93086
0.910929
0.911249
0.221811
0.210824
0.804373
0.792949
0.793157
0.796819
0.787406
0.774749
0.440158
0.49777
0.612613
0.565922
0.930105
0.931876
0.901222
0.907669
0.898982
0.905024
0.928287
0.929546
0.894967
0.893921
0.843088
0.843029
0.72323
0.725491
0.155368
0.173001
0.664728
0.665884
0.46169
0.657674
0.877804
0.882558
0.919247
0.91901
0.937194
0.937716
0.933385
0.933762
0.925289
0.910188
0.889818
0.878234
0.917599
0.935106
0.696147
0.714107
0.70772
0.72064
0.734609
0.877786
0.879442
0.811024
0.839119
0.909119
0.752987
0.754037
0.750261
0.731211
0.805278
0.873093
0.917681
0.917096
0.941026
0.924028
0.936885
0.939484
0.928103
0.922621
0.926271
0.927285
0.883585
0.84647
0.850345
0.848099
0.83555
0.805867
0.763834
0.764773
0.787996
0.716639
0.786617
0.674247
0.872848
0.899692
0.895609
0.877435
0.885447
0.826333
0.841954
0.742684
0.7542
0.790433
0.730031
0.773533
0.942924
0.935824
0.902598
0.920436
0.927953
0.921555
0.932693
0.927441
0.938602
0.942784
0.888979
0.883471
0.922454
0.919336
0.945714
0.937444
0.92772
0.921392
0.934044
0.942781
0.820326
0.830658
0.769254
0.783178
0.759114
0.771089
0.619057
0.540901
0.783325
0.798265
0.743765
0.735056
0.908644
0.902189
0.920256
0.926384
0.864362
0.879961
0.919673
0.922552
0.93424
0.935039
0.935414
0.936698
0.93021
0.9232
0.928647
0.924555
0.934937
0.93763
0.922748
0.930333
0.919194
0.923801
0.931856
0.923297
0.94356
0.942287
0.917862
0.922047
0.914553
0.916676
0.939956
0.935454
0.557308
0.65534
0.546602
0.655678
0.656146
0.65608
0.647303
0.643954
0.859136
0.86999
0.908358
0.90805
0.877556
0.878492
0.873568
0.871903
0.870037
0.870221
0.887958
0.889048
0.861433
0.862915
0.809401
0.808234
0.743662
0.699993
0.872335
0.870416
0.840324
0.838388
0.834114
0.831839
0.853311
0.699458
0.705394
0.711018
0.716113
0.779894
0.855021
0.852912
0.845281
0.847636
0.86162
0.864742
0.818468
0.814993
0.812372
0.809649
0.843403
0.845797
0.842867
0.845237
0.808412
0.811317
0.640609
0.646396
0.827375
0.833219
0.434953
0.422366
0.303376
0.289546
0.145505
0.231467
0.00293535
0.00240745
0.00959295
0.00779436
0.120431
0.112184
0.664042
0.657953
0.796019
0.801736
0.689581
0.706108
0.600116
0.585824
0.644792
0.626045
0.561721
0.579129
0.00758829
-0.0027956
0.867573
0.877878
0.792871
0.802575
0.779716
0.811101
0.787835
0.721921
0.79305
0.779746
0.795978
0.929865
0.929099
0.938105
0.9384
0.772674
0.777013
0.765995
0.828045
0.814488
0.823835
0.80677
0.84678
0.713088
0.790059
0.707086
0.722168
0.813193
0.727259
0.835629
0.852547
0.912277
0.913615
0.70551
0.723295
0.546796
0.528441
0.680429
0.679162
0.63971
0.694018
0.788736
0.792568
0.450831
0.51211
0.555724
0.602912
0.918954
0.920121
0.931428
0.932896
0.908414
0.901956
0.169124
0.172779
0.217802
0.182939
0.768633
0.721875
0.892728
0.891369
0.866077
0.866023
0.731106
0.730345
0.765041
0.767531
0.139511
0.146281
0.616081
0.614305
0.898915
0.904186
0.88746
0.840502
0.940392
0.941545
0.934421
0.93461
0.936088
0.938665
0.926216
0.910475
0.887098
0.896863
0.921894
0.933488
0.751853
0.788332
0.771645
0.85037
0.834342
0.863714
0.885696
0.850063
0.868084
0.762548
0.783114
0.875993
0.876581
0.933032
0.94012
0.925967
0.920961
0.92348
0.929215
0.934514
0.935162
0.940034
0.930429
0.860911
0.873012
0.822007
0.836135
0.817053
0.845547
0.851665
0.855955
0.845709
0.809212
0.814322
0.82613
0.760937
0.766737
0.719946
0.662437
0.630537
0.888798
0.904943
0.894039
0.832036
0.854871
0.792323
0.782276
0.784417
0.756203
0.764509
0.847468
0.71435
0.784136
0.728559
0.943499
0.935519
0.926934
0.927094
0.923409
0.921423
0.928893
0.936484
0.94841
0.933344
0.928073
0.934618
0.940572
0.898518
0.893696
0.934307
0.936275
0.93885
0.946552
0.838586
0.847729
0.803115
0.783441
0.796324
0.808801
0.721184
0.736709
0.682484
0.662408
0.648366
0.529743
0.706936
0.72198
0.719311
0.755841
0.91112
0.904502
0.923167
0.920236
0.935409
0.935415
0.933993
0.931053
0.934846
0.936438
0.931581
0.925539
0.92979
0.925421
0.918235
0.921238
0.91891
0.922896
0.944055
0.942214
0.918691
0.923189
0.881977
0.883399
0.751417
0.707324
0.72737
0.721682
0.297181
0.280786
0.271671
0.282852
0.452981
0.470624
0.879625
0.873567
0.898839
0.897566
0.906187
0.905037
0.900606
0.901787
0.8754
0.87673
0.875168
0.876308
0.871573
0.873091
0.871299
0.892113
0.893284
0.886832
0.865067
0.863312
0.856096
0.854242
0.100141
0.0962752
0.85231
0.854619
0.866686
0.871129
0.197998
0.161993
0.839797
0.852516
0.876055
0.877859
0.870213
0.871067
0.836223
0.834065
0.827556
0.824898
0.786127
0.78193
0.751595
0.780696
0.823362
0.836746
0.849307
0.846857
0.862878
0.86098
0.82531
0.822494
0.813608
0.819542
0.845236
0.84286
0.834038
0.840462
0.806832
0.803925
0.799162
0.802343
0.774763
0.770382
0.761122
0.765454
0.827104
0.820568
0.817646
0.719954
0.71355
0.475062
0.490231
0.196487
0.210104
0.0743695
0.073051
0.00759326
0.00917252
0.00517559
0.00626954
-0.00389253
-0.00394249
0.0458242
0.0107363
0.241259
0.255165
0.202883
0.182804
0.76084
0.764702
0.719126
0.731716
0.642898
0.62968
0.745967
0.739739
0.627797
0.608438
0.609151
0.595133
0.502329
0.520269
0.471924
0.477796
-0.00303601
-0.00214688
0.768046
0.737992
0.823973
0.827162
0.815591
0.795278
0.817503
0.785691
0.778178
0.79622
0.6949
0.835837
0.898917
0.90305
0.931996
0.930856
0.937687
0.933338
0.919425
0.929947
0.798595
0.786075
0.89562
0.905087
0.83306
0.848294
0.7975
0.815777
0.835104
0.787773
0.788407
0.780183
0.76196
0.779926
0.789632
0.758404
0.318789
0.393048
0.92704
0.92657
0.879686
0.880982
0.795661
0.794087
0.603656
0.612044
0.555458
0.536895
0.665617
0.672482
0.388613
0.195907
0.687924
0.63252
0.791841
0.779495
0.763193
0.748958
0.543358
0.613436
0.246436
0.234489
0.571814
0.52337
0.393253
0.37996
0.925418
0.926348
0.93422
0.935444
0.923169
0.922517
0.906178
0.90514
0.175516
0.195332
0.200485
0.725009
0.770589
0.927519
0.92654
0.87318
0.873826
0.875255
0.875261
0.804986
0.804741
0.123004
0.124259
0.806707
0.811351
0.66968
0.670727
0.451285
0.440069
0.476676
0.261319
0.916787
0.921853
0.889435
0.857431
0.937898
0.93833
0.935135
0.933636
0.935623
0.938598
0.929151
0.912218
0.898846
0.903507
0.64475
0.471115
0.721864
0.869845
0.873295
0.910581
0.921783
0.927023
0.935527
0.914593
0.919211
0.824175
0.83181
0.707333
0.782295
0.792723
0.849444
0.855809
0.837955
0.796392
0.770352
0.690499
0.668933
0.60642
0.485194
0.882113
0.899274
0.817084
0.799623
0.788547
0.809574
0.772274
0.832888
0.838306
0.789226
0.805436
0.918622
0.931493
0.932513
0.880902
0.849896
0.922287
0.927454
0.939451
0.951165
0.921402
0.929344
0.947122
0.934324
0.937107
0.942292
0.931675
0.92656
0.912256
0.915745
0.828918
0.842224
0.869029
0.874336
0.855196
0.839588
0.821973
0.764577
0.750811
0.720393
0.703292
0.343156
0.435238
0.705226
0.792821
0.774543
0.726932
0.93704
0.93344
0.923934
0.920876
0.934156
0.932042
0.934294
0.936189
0.917858
0.920538
0.946672
0.940534
0.814801
0.812647
0.895242
0.898238
0.860446
0.862427
0.862423
0.864091
0.826781
0.82431
0.179194
0.251014
0.353884
0.33355
0.534021
0.538703
0.293257
0.734828
0.739842
0.877325
0.883047
0.867389
0.865296
0.831889
0.834457
0.899445
0.900613
0.906976
0.907275
0.885695
0.889786
0.87903
0.880503
0.878055
0.87378
0.877398
0.872689
0.874054
0.894637
0.895852
0.876554
0.881811
0.861868
0.863334
0.855255
0.856986
0.521281
0.517703
0.849586
0.847383
0.83135
0.829269
0.859217
0.747849
0.704038
0.798659
0.795122
0.877089
0.874774
0.867622
0.858738
0.842312
0.84049
0.869227
0.864202
0.837922
0.839908
0.829777
0.827256
0.831774
0.675871
0.681733
0.742414
0.736989
0.834237
0.831739
0.830909
0.834422
0.851594
0.84287
0.852437
0.854153
0.820763
0.817545
0.82365
0.83765
0.835046
0.849749
0.851891
0.844936
0.808104
0.810918
0.815682
0.8186
0.805426
0.701316
0.652176
0.733753
0.738456
0.800125
0.782795
0.810013
0.814031
0.579801
0.572331
0.0600635
0.00599735
0.19578
0.127699
0.143924
0.286618
0.301781
0.276746
0.264581
0.153914
0.162719
0.0107685
0.0613929
-0.00395079
-0.00393643
0.0121628
0.013657
-0.00380532
0.00193303
0.143862
0.136785
0.181002
0.192699
0.370641
0.353355
0.787274
0.783331
0.809724
0.805797
0.681219
0.697763
0.675301
0.687294
0.75237
0.757998
0.698848
0.681885
0.694214
0.710434
0.425922
0.434441
0.590876
0.576263
0.662803
0.67305
0.5419
0.564611
0.219304
0.227414
-0.00204566
0.0143051
0.00500998
0.912818
0.914198
0.948131
0.947402
0.85875
0.875112
0.872292
0.84156
0.708075
0.734078
0.83473
0.758717
0.644527
0.597636
0.89913
0.897423
0.930099
0.930298
0.932485
0.932301
0.938681
0.926418
0.932885
0.93238
0.915953
0.920577
0.757027
0.769557
0.86784
0.881405
0.899177
0.908397
0.787509
0.802838
0.817409
0.863531
0.843624
0.84548
0.844517
0.836852
0.79132
0.780408
0.751313
0.95156
0.94262
0.938432
0.73531
0.778213
0.811816
0.916382
0.915139
0.894321
0.899755
0.880452
0.876107
0.679665
0.623312
0.630972
0.639436
0.643128
0.650908
0.552929
0.534014
0.60854
0.599459
0.673829
0.667044
0.830784
0.833082
0.681762
0.625238
0.752973
0.719722
0.796132
0.784094
0.781742
0.773273
0.752437
0.73755
0.581221
0.558961
0.257573
0.25191
0.00390479
0.00404291
0.390848
0.28721
0.370824
0.271336
0.211154
0.19695
0.291764
0.270663
0.923406
0.924459
0.935387
0.934367
0.922831
0.923637
0.907409
0.908402
0.883965
0.891767
0.851299
0.836831
0.80256
0.824869
0.90267
0.901551
0.863168
0.860028
0.883758
0.883857
0.866005
0.865868
0.774215
0.773852
0.125829
0.128443
0.743825
0.736518
0.796501
0.798823
0.667155
0.6684
0.432708
0.425703
0.901783
0.903779
0.905889
0.917854
0.919653
0.891274
0.893515
0.939152
0.939029
0.932961
0.693898
0.90826
0.903666
0.928276
0.913698
0.926476
0.899251
0.879242
0.909993
0.896811
0.815867
0.766223
0.809418
0.826658
0.724268
0.551729
0.423055
0.753756
0.732235
0.616105
0.896907
0.905267
0.774214
0.761566
0.776977
0.792009
0.800063
0.739609
0.786218
0.750654
0.721998
0.926338
0.935812
0.88684
0.858434
0.921813
0.927651
0.95073
0.940902
0.943864
0.930468
0.921411
0.928302
0.941696
0.94014
0.827825
0.815483
0.878353
0.868144
0.812214
0.801455
0.753977
0.73653
0.601578
0.648326
0.813949
0.932029
0.936233
0.926596
0.922965
0.93552
0.935908
0.923098
0.931214
0.841297
0.839102
0.912205
0.917401
0.892606
0.892497
0.873639
0.874524
0.710625
0.664002
0.900737
0.901734
0.712194
0.711684
0.897931
0.898894
0.788359
0.787576
0.552633
0.654546
0.321532
0.330096
0.184182
0.314776
0.303164
0.312494
0.681014
0.687662
0.879143
0.884702
0.875468
0.881354
0.817384
0.820508
0.886744
0.888093
0.893815
0.895052
0.907099
0.90819
0.893356
0.892778
0.906381
0.903567
0.879678
0.882258
0.881757
0.880123
0.872526
0.87124
0.890917
0.893407
0.868576
0.869923
0.858384
0.856814
0.857717
0.859321
0.200276
0.191659
0.59879
0.595364
0.840636
0.838543
0.864859
0.869324
0.871628
0.876178
0.702772
0.746522
0.631553
0.62218
0.799902
0.776076
0.876525
0.87874
0.863158
0.871628
0.876652
0.871641
0.86853
0.86935
0.860963
0.866013
0.842955
0.848825
0.841856
0.838295
0.837192
0.843381
0.831963
0.82957
0.835759
0.838625
0.72123
0.716101
0.77148
0.766315
0.734419
0.764322
0.859046
0.857062
0.844235
0.841451
0.854557
0.856561
0.857509
0.859245
0.82305
0.820046
0.82615
0.823358
0.850332
0.852482
0.824173
0.826871
0.814146
0.816907
0.821426
0.812871
0.755263
0.750795
0.717759
0.71496
0.756725
0.729139
0.790878
0.774213
0.824106
0.830243
0.709859
0.703242
0.58566
0.575123
0.281037
0.294717
0.512753
0.527144
0.409566
0.461115
0.25506
0.271056
-0.00305798
-0.00245252
0.171908
0.181853
0.0661481
0.0710685
0.0567597
0.0522443
0.138371
0.124222
0.0502827
0.0548413
0.283892
0.299006
0.294819
0.310194
0.320628
0.294414
0.346687
0.319827
0.81931
0.818446
0.792609
0.796353
0.80027
0.804358
0.712607
0.725571
0.692146
0.687139
0.738971
0.744997
0.69152
0.674239
0.730786
0.737229
0.679197
0.686792
0.723977
0.733282
0.617325
0.63636
0.614837
0.631753
0.55211
0.529806
0.470319
0.484205
0.182294
0.092048
0.205664
0.261437
0.0163389
0.915159
0.906889
0.536577
0.465879
0.933754
0.936827
0.701335
0.653443
0.903042
0.869928
0.849653
0.868007
0.883412
0.886031
0.885323
0.875727
0.781434
0.78829
0.7407
0.770916
0.806106
0.814228
0.925557
0.925552
0.922033
0.92114
0.931346
0.931217
0.933879
0.934727
0.925869
0.939925
0.937203
0.933828
0.936394
0.938795
0.843077
0.849187
0.923318
0.914086
0.741132
0.77556
0.89295
0.886553
0.889683
0.913403
0.820475
0.835939
0.843988
0.87172
0.86992
0.864808
0.856778
0.841878
0.73906
0.765338
0.684699
0.601529
0.69676
0.884288
0.945396
0.929451
0.926913
0.73856
0.736834
0.819816
0.812847
0.928682
0.927219
0.916662
0.918203
0.90678
0.90713
0.472052
0.455364
0.908975
0.909014
0.685367
0.690776
0.780512
0.785038
0.693234
0.69946
0.406479
0.394931
0.333583
0.346086
0.555919
0.564647
0.590123
0.580528
0.747569
0.752509
0.541404
0.619159
0.787455
0.75508
0.82096
0.82329
0.453618
0.479577
0.557729
0.566869
0.805677
0.80884
0.80032
0.788592
0.721869
0.684723
0.777788
0.786182
0.757903
0.743341
0.702358
0.684636
0.484452
0.5457
0.147563
0.150447
0.680349
0.666437
0.401884
0.297183
0.380245
0.278423
0.437715
0.53883
0.52635
0.299666
0.278571
0.92856
0.927081
0.911676
0.914181
0.918953
0.91985
0.898242
0.899454
0.89915
0.898135
0.899054
0.905284
0.89901
0.905095
0.874455
0.863658
0.797739
0.82151
0.272861
0.153654
0.66347
0.574522
0.896437
0.895505
0.852591
0.848122
0.903957
0.904408
0.854477
0.853832
0.874324
0.874707
0.826863
0.826613
0.590942
0.586904
0.599954
0.598376
0.421317
0.415902
0.786321
0.781255
0.758587
0.762102
0.604816
0.606111
0.104203
0.213637
0.603386
0.895545
0.88303
0.919766
0.922417
0.941156
0.94214
0.918322
0.919175
0.91588
0.807292
0.827702
0.832018
0.870697
0.889056
0.778066
0.207246
0.325993
0.622003
0.667854
0.699006
0.656244
0.871287
0.856151
0.861263
0.871971
0.720179
0.819525
0.936626
0.939751
0.910666
0.918275
0.906596
0.908406
0.949391
0.938541
0.922887
0.927298
0.932288
0.945545
0.822032
0.80751
0.862457
0.85515
0.72331
0.707155
0.930645
0.935253
0.855159
0.85672
0.929697
0.929242
0.917095
0.91794
0.90528
0.906368
0.883454
0.885049
0.858494
0.863057
0.101347
0.180824
0.338597
0.330162
0.884531
0.883043
0.902722
0.862053
0.856678
0.752455
0.70824
0.784338
0.783095
0.867692
0.868139
0.789953
0.81334
0.754317
0.707393
0.554997
0.653765
0.549836
0.655199
0.187932
0.193094
0.739558
0.73384
0.828857
0.831184
0.880922
0.886322
0.869434
0.830847
0.827947
0.837775
0.835088
0.878158
0.879659
0.890431
0.891465
0.904729
0.904902
0.905895
0.907061
0.89864
0.897642
0.894859
0.895813
0.880345
0.881272
0.879376
0.880697
0.883177
0.885519
0.890874
0.892151
0.879451
0.880647
0.868896
0.870214
0.865503
0.866989
0.859744
0.85793
0.866174
0.86755
0.856085
0.234112
0.241337
0.358725
0.356916
0.514248
0.510726
0.838226
0.82393
0.827622
0.86289
0.867441
0.870045
0.874546
0.83058
0.808237
0.670937
0.718898
0.560536
0.649189
0.715872
0.755293
0.815624
0.81236
0.850095
0.837108
0.865556
0.856456
0.869647
0.860972
0.846178
0.84458
0.86682
0.867607
0.862601
0.867638
0.844821
0.850589
0.836248
0.849812
0.851574
0.83385
0.835899
0.83327
0.830408
0.752152
0.7476
0.805311
0.801649
0.826724
0.821668
0.760495
0.729666
0.80196
0.80456
0.853334
0.855505
0.858503
0.860392
0.850719
0.85574
0.835549
0.838635
0.842319
0.831468
0.828846
0.838333
0.840916
0.847531
0.848106
0.829563
0.83234
0.809927
0.806883
0.647028
0.697163
0.747824
0.74643
0.652344
0.658225
0.784997
0.771138
0.768442
0.805401
0.786875
0.804024
0.735239
0.730213
0.779273
0.783875
0.668317
0.675458
0.711901
0.715787
0.508924
0.497781
0.463456
0.470504
0.476373
0.555837
0.568794
0.513926
0.527741
0.393178
0.445328
0.183067
0.170027
0.192982
0.207453
0.0760272
0.0812996
0.01232
0.0138248
0.088891
0.0951897
0.0288771
0.0824939
0.436648
0.452773
0.34162
0.357902
0.204587
0.128737
0.149128
0.132871
0.291073
0.266097
0.338997
0.312203
0.709202
0.742353
0.776978
0.772817
0.833248
0.837015
0.704723
0.688544
0.717466
0.705987
0.687367
0.779118
0.774077
0.68415
0.666621
0.757812
0.751995
0.703278
0.695936
0.671676
0.677612
0.630278
0.648063
0.588404
0.56411
0.508332
0.490367
0.456248
0.47651
0.248753
0.240381
0.294913
0.370637
0.222356
0.278974
0.243841
0.25213
0.922749
0.935945
0.936516
0.664733
0.613215
0.923572
0.915955
0.922335
0.923813
0.872235
0.870778
0.861216
0.865199
0.556955
0.693467
0.711451
0.683386
0.769469
0.849088
0.876786
0.877014
0.916095
0.920317
0.910844
0.907639
0.923013
0.919598
0.901619
0.905969
0.929561
0.932438
0.930446
0.931263
0.933032
0.932275
0.937014
0.936346
0.933178
0.925578
0.939042
0.933676
0.92913
0.933906
0.934077
0.934688
0.917666
0.894274
0.915892
0.896936
0.905714
0.915264
0.921927
0.831692
0.827782
0.578649
0.623944
0.856938
0.843477
0.892089
0.905953
0.908691
0.88544
0.889787
0.800421
0.798462
0.886396
0.879829
0.806536
0.810315
0.744015
0.595908
0.122406
0.249598
0.950216
0.900332
0.911437
0.84373
0.810497
0.688772
0.691008
0.830909
0.863192
0.844364
0.921283
0.91639
0.922085
0.922507
0.915144
0.790103
0.78672
0.23693
0.244264
0.90781
0.907538
0.877241
0.879004
0.816591
0.807719
0.789426
0.782945
0.71602
0.70951
0.717562
0.711658
0.565038
0.573854
0.325254
0.313583
0.53715
0.517758
0.528456
0.538339
0.557437
0.567217
0.716437
0.709551
0.737143
0.731669
0.746487
0.741936
0.417956
0.401043
0.205875
0.729835
0.766019
0.830745
0.808287
0.797171
0.0958859
0.100652
0.54854
0.801636
0.804953
0.777159
0.768605
0.764451
0.769284
0.606267
0.535071
0.647694
0.627479
0.544369
0.555508
0.36282
0.371766
0.00344242
0.055333
0.0466174
0.0382744
0.711792
0.724814
0.472234
0.483326
0.449927
0.461051
0.435522
0.410775
0.355094
0.368297
0.927168
0.925788
0.921233
0.92236
0.689134
0.619665
0.914999
0.912446
0.921323
0.92206
0.920713
0.921571
0.896105
0.894944
0.904351
0.90335
0.899057
0.905347
0.899086
0.905239
0.864558
0.874713
0.838
0.852079
0.75588
0.701406
0.246155
0.167728
0.318701
0.134588
0.354323
0.125333
0.923607
0.924467
0.930764
0.93011
0.919651
0.919368
0.895882
0.897378
0.897787
0.897276
0.84179
0.840931
0.865611
0.865246
0.825845
0.826445
0.773985
0.774261
0.670475
0.668806
0.671672
0.672265
0.411024
0.404828
0.794104
0.801158
0.814971
0.817994
0.720626
0.717656
0.0682582
0.383083
0.48706
0.30178
0.761373
0.784149
0.911774
0.914804
0.864318
0.872127
0.942653
0.943373
0.935344
0.946077
0.948076
0.940493
0.938898
0.818564
0.785845
0.878637
0.884605
0.876947
0.901433
0.215915
0.489719
0.535124
0.412001
0.722212
0.693851
0.575125
0.746859
0.769372
0.922098
0.934708
0.94407
0.936785
0.911792
0.940218
0.950139
0.802191
0.788308
0.867324
0.868047
0.925747
0.924782
0.919623
0.92048
0.9018
0.902982
0.891209
0.891458
0.875502
0.876282
0.810447
0.807636
0.101017
0.161258
0.27288
0.633302
0.527516
0.134576
0.195158
0.885401
0.88398
0.862738
0.861083
0.894796
0.896236
0.753425
0.709084
0.785539
0.877169
0.876052
0.902444
0.903259
0.793096
0.807223
0.815969
0.708893
0.755769
0.345939
0.353205
0.237622
0.179838
0.338203
0.485829
0.650094
0.745229
0.761926
0.767148
0.895015
0.894842
0.871435
0.87339
0.833676
0.844275
0.841733
0.86715
0.865275
0.885428
0.876678
0.901254
0.900735
0.898324
0.892615
0.904745
0.903673
0.903369
0.886071
0.885082
0.892934
0.893507
0.895692
0.898765
0.899861
0.878512
0.877357
0.87697
0.871534
0.889694
0.888443
0.875347
0.874105
0.872762
0.873985
0.863993
0.858695
0.860381
0.859923
0.864769
0.625536
0.628289
0.641536
0.634286
0.175642
0.174244
0.602182
0.605556
0.825564
0.823624
0.721716
0.720236
0.860744
0.865453
0.857331
0.855171
0.878865
0.883707
0.80563
0.828094
0.780432
0.781788
0.412036
0.234156
0.561136
0.644468
0.184792
0.20301
0.377685
0.552652
0.869321
0.871957
0.834357
0.847621
0.796203
0.771743
0.784473
0.807046
0.878241
0.88036
0.863448
0.854129
0.878936
0.880379
0.848056
0.846571
0.855875
0.860965
0.876072
0.875109
0.871271
0.872866
0.856716
0.858364
0.845216
0.839134
0.846158
0.843761
0.82405
0.82095
0.711014
0.670028
0.687591
0.693528
0.800383
0.815798
0.817247
0.800983
0.756901
0.72498
0.788134
0.807363
0.849874
0.847573
0.859742
0.85788
0.861136
0.86288
0.84475
0.846371
0.825624
0.827646
0.843129
0.836872
0.835503
0.838014
0.840395
0.837834
0.818533
0.81573
0.817827