/*--------------------------------*- C++ -*----------------------------------*\
  =========                 |
  \\      /  F ield         | OpenFOAM: The Open Source CFD Toolbox
   \\    /   O peration     | Website:  https://openfoam.org
    \\  /    A nd           | Version:  7
     \\/     M anipulation  |
\*---------------------------------------------------------------------------*/
FoamFile
{
    version     2.0;
    format      ascii;
    class       volScalarField;
    location    "2100";
    object      T;
}
// * * * * * * * * * * * * * * * * * * * * * * * * * * * * * * * * * * * * * //

dimensions      [0 0 0 1 0 0 0];

internalField   nonuniform List<scalar> 
238806
(
1.55967e-06
1.59769e-06
2.48032e-06
2.5691e-06
2.40308e-06
1.81634e-06
1.80554e-06
1.56058e-06
1.52652e-06
2.60995e-06
2.66836e-06
2.26548e-06
3.74099e-06
3.81907e-06
4.30987e-06
4.01045e-06
2.72164e-06
2.80237e-06
1.34675e-06
1.34266e-06
3.3707e-06
3.53143e-06
4.0283e-06
4.10113e-06
4.29191e-06
2.59848e-06
2.7023e-06
2.73463e-06
2.95057e-06
2.90915e-06
1.35254e-06
1.34099e-06
3.39066e-06
3.17898e-06
2.74986e-06
2.6066e-06
0.00235604
0.00237047
2.51152e-06
2.43496e-06
2.54608e-06
2.74408e-06
1.5265e-06
1.51643e-06
1.3552e-06
1.36029e-06
4.43453e-06
4.12726e-06
2.97935e-06
2.79237e-06
2.0445e-06
1.9989e-06
3.54699e-06
3.62497e-06
0.000369056
0.000364038
2.5462e-06
2.45527e-06
2.45404e-06
2.2909e-06
2.36204e-06
2.41605e-06
2.36533e-06
2.3956e-06
2.30177e-06
1.36514e-06
1.36896e-06
1.49603e-06
1.52447e-06
1.72782e-06
1.7793e-06
3.40618e-06
3.63031e-06
2.89832e-06
3.08467e-06
2.29022e-06
2.36828e-06
2.76469e-06
2.62168e-06
6.75725e-05
6.72258e-05
2.40299e-06
2.26377e-06
1.68265e-06
1.66382e-06
2.07838e-06
2.15166e-06
3.04342e-06
2.94489e-06
2.84892e-06
2.93619e-06
2.19701e-06
2.27677e-06
1.56681e-06
1.57948e-06
2.33325e-06
2.246e-06
2.37639e-06
2.51992e-06
2.68707e-06
1.37532e-06
1.48094e-06
1.50051e-06
1.52816e-06
1.51772e-06
5.08637e-06
5.32627e-06
3.13404e-06
3.3242e-06
3.28771e-06
3.50662e-06
2.37158e-06
2.27583e-06
2.08598e-06
2.13217e-06
3.68107e-06
3.48743e-06
0.00266669
0.00266117
0.0026775
3.50043e-06
3.72778e-06
1.73103e-06
1.75462e-06
1.77675e-06
1.7668e-06
4.58803e-06
4.62848e-06
3.24218e-06
3.18936e-06
2.3569e-06
2.95639e-06
3.05096e-06
2.95598e-06
2.20617e-06
2.11761e-06
1.57135e-06
1.55609e-06
3.71455e-06
3.8809e-06
3.79947e-06
3.70178e-06
2.24032e-06
1.43505e-06
1.45499e-06
1.43227e-06
1.4482e-06
1.53155e-06
1.50992e-06
1.6461e-06
1.68215e-06
1.86772e-06
1.912e-06
4.97461e-06
5.24623e-06
3.55289e-06
3.74985e-06
3.53341e-06
3.76152e-06
3.53479e-06
3.69771e-06
2.39538e-06
2.47481e-06
1.98236e-06
2.01547e-06
2.77467e-06
2.62986e-06
5.20041e-05
5.22759e-05
0.0023408
0.00235512
2.50442e-06
2.36852e-06
1.09077e-05
1.10472e-05
1.10323e-05
1.69576e-06
1.717e-06
2.21351e-06
2.25962e-06
4.97834e-06
4.98144e-06
3.17441e-06
2.91891e-06
2.80871e-06
2.8376e-06
1.67541e-06
1.68624e-06
1.55189e-06
1.53898e-06
1.52967e-06
1.51925e-06
1.69583e-06
1.7212e-06
2.44759e-06
2.33422e-06
2.31004e-06
3.1802e-06
3.15734e-06
2.43668e-06
2.48763e-06
1.36218e-06
1.35348e-06
1.44537e-06
1.46914e-06
1.46886e-06
1.4935e-06
1.92416e-06
2.00333e-06
1.73113e-06
1.69308e-06
7.73693e-06
7.6245e-06
5.72283e-06
6.01963e-06
4.56966e-06
4.29898e-06
3.85559e-06
3.61512e-06
3.1999e-06
3.01207e-06
2.36319e-06
2.46733e-06
2.18697e-06
2.10803e-06
2.09977e-06
2.06763e-06
2.75297e-06
2.60903e-06
2.58178e-05
2.45878e-05
0.000168095
0.000160192
0.000150143
0.000143094
0.000759248
0.000795394
1.50497e-06
1.44984e-06
1.76377e-06
1.66169e-06
4.22034e-06
4.45446e-06
1.4566e-05
1.50647e-05
1.76982e-06
1.79426e-06
2.10322e-06
2.0628e-06
2.23873e-06
2.32295e-06
2.77816e-06
2.888e-06
3.93474e-06
3.8739e-06
2.6294e-06
2.52315e-06
1.5743e-06
1.55935e-06
1.56275e-06
1.54874e-06
1.55476e-06
1.54139e-06
2.65116e-06
2.64003e-06
1.73929e-06
1.70744e-06
2.45153e-06
2.503e-06
3.50872e-06
3.73251e-06
2.16862e-06
3.25399e-06
1.95263e-06
2.01366e-06
1.89922e-06
1.36809e-06
1.37832e-06
1.39346e-06
1.40662e-06
1.47287e-06
1.4552e-06
1.6252e-06
1.57895e-06
1.59163e-06
1.58996e-06
1.69626e-06
1.7158e-06
5.96624e-06
6.14138e-06
5.02475e-06
4.87154e-06
5.92326e-06
6.2178e-06
5.17963e-06
5.48294e-06
4.00843e-06
4.27428e-06
3.74177e-06
3.99555e-06
3.66906e-06
3.9001e-06
3.77982e-06
3.8876e-06
2.69757e-06
2.84434e-06
2.28472e-06
2.33207e-06
2.19455e-06
2.27214e-06
3.63902e-06
3.61511e-06
2.92829e-06
2.90617e-06
2.95484e-06
3.10732e-06
4.75091e-05
4.5379e-05
3.28407e-05
3.12907e-05
5.79203e-05
6.07152e-05
7.04969e-05
7.0852e-05
0.000186402
0.000184951
0.000797694
0.000761227
0.00269081
2.60913e-06
2.48057e-06
3.74731e-06
3.53224e-06
0.000293674
0.000308754
5.94285e-06
5.68516e-06
1.12022e-05
1.14483e-05
1.82431e-06
1.87097e-06
1.74299e-06
1.73338e-06
2.17864e-06
2.13521e-06
2.40688e-06
2.51819e-06
3.38696e-06
3.36505e-06
3.44608e-06
3.52894e-06
1.84794e-06
1.78284e-06
1.58215e-06
1.56822e-06
1.60473e-06
1.62007e-06
1.61954e-06
1.53778e-06
1.55061e-06
2.43898e-06
2.42774e-06
1.96738e-06
1.90323e-06
1.76669e-06
1.73249e-06
2.7391e-06
2.8845e-06
4.09113e-06
1.87757e-06
1.95924e-06
2.74528e-06
2.57858e-06
2.33678e-06
2.23922e-06
2.2496e-06
2.32895e-06
1.55495e-06
1.59178e-06
1.38192e-06
1.37215e-06
1.39604e-06
1.40208e-06
1.40466e-06
1.42349e-06
1.42391e-06
1.44526e-06
2.38742e-06
2.28563e-06
2.09409e-06
2.01173e-06
1.55477e-06
1.56788e-06
1.52627e-06
1.54233e-06
1.68606e-06
1.68634e-06
1.74542e-06
1.78569e-06
1.96951e-06
2.04325e-06
7.31709e-06
7.43769e-06
4.65133e-06
4.44674e-06
6.13414e-06
6.42646e-06
5.3519e-06
5.65325e-06
4.7061e-06
5.01061e-06
4.27209e-06
4.5693e-06
3.81329e-06
4.04672e-06
3.69028e-06
3.5924e-06
2.81377e-06
2.9639e-06
2.22769e-06
2.18098e-06
2.59576e-06
2.46691e-06
3.08016e-06
2.9176e-06
3.09114e-06
3.06883e-06
2.81236e-06
3.81063e-05
3.64786e-05
2.59005e-05
2.46727e-05
3.59181e-05
3.76866e-05
4.21826e-05
4.01589e-05
0.000160013
0.000167965
0.000133951
0.000128535
0.000168808
0.000176682
0.00157091
0.00156314
0.000234914
0.000224542
2.03576e-06
1.97247e-06
2.06015e-06
3.92328e-06
4.01722e-06
3.92685e-06
4.05043e-06
3.98746e-06
3.90826e-06
0.000351393
0.000346619
9.61239e-06
9.96383e-06
1.06752e-05
1.08921e-05
1.11981e-05
1.12091e-05
6.09952e-06
6.05979e-06
1.76062e-06
1.73294e-06
1.81392e-06
1.84643e-06
1.97204e-06
1.95974e-06
2.15896e-06
2.66203e-06
2.64554e-06
2.77092e-06
3.58281e-06
3.80401e-06
3.78708e-06
3.72529e-06
1.61777e-06
1.62681e-06
1.60533e-06
1.58321e-06
1.59676e-06
1.57812e-06
1.58905e-06
1.53508e-06
1.5241e-06
2.89702e-06
2.88574e-06
2.46546e-06
2.56785e-06
2.25785e-06
2.34478e-06
1.73647e-06
1.77186e-06
2.55727e-06
2.42775e-06
3.05153e-06
2.93861e-06
3.02355e-06
3.97849e-06
3.38211e-06
3.36236e-06
3.44751e-06
3.53326e-06
3.04519e-06
2.33726e-06
1.68572e-06
1.63702e-06
1.4624e-06
1.48898e-06
1.38457e-06
1.3968e-06
1.41123e-06
1.39209e-06
1.36204e-06
1.37296e-06
1.42635e-06
1.41182e-06
2.18701e-06
2.28118e-06
1.8522e-06
1.92811e-06
1.6904e-06
1.6381e-06
1.63625e-06
1.63525e-06
1.56581e-06
1.59757e-06
1.80483e-06
1.8061e-06
1.77254e-06
1.75228e-06
1.98383e-06
1.93827e-06
8.32143e-06
8.15475e-06
6.22955e-06
5.90124e-06
4.08018e-06
3.87955e-06
5.11331e-06
4.87376e-06
5.63964e-06
5.36907e-06
5.06439e-06
4.79241e-06
5.53249e-06
5.83167e-06
4.85808e-06
5.16331e-06
4.41451e-06
4.71327e-06
3.59903e-06
3.40416e-06
3.96604e-06
4.20125e-06
3.1654e-06
3.11353e-06
3.39074e-06
3.26554e-06
2.9387e-06
3.09175e-06
2.62682e-06
2.4869e-06
2.65403e-06
2.70347e-06
2.04609e-06
2.03625e-06
2.37736e-06
2.46429e-06
2.56107e-06
2.6803e-06
2.90271e-06
3.06523e-06
3.2696e-06
3.44193e-06
7.38285e-05
7.72851e-05
4.53388e-05
4.74619e-05
3.29015e-05
3.13425e-05
5.45973e-05
5.48804e-05
6.09977e-05
5.81798e-05
8.30769e-05
8.70005e-05
0.000145115
0.000146028
0.000128999
0.000128465
0.000178049
0.000170076
0.00171496
0.00177623
0.00241252
0.00242761
0.000426633
0.000424704
0.000846197
0.000843619
2.52424e-06
2.69978e-06
1.54327e-06
1.56364e-06
4.3632e-06
4.46945e-06
2.65577e-06
2.82155e-06
2.84846e-06
2.65408e-06
3.81939e-06
3.60554e-06
0.000296318
0.000292427
0.0016023
0.00161291
1.75794e-05
1.77185e-05
1.3448e-05
1.38951e-05
1.33237e-05
1.29826e-05
1.13535e-05
1.15292e-05
1.14089e-05
1.10033e-05
1.87077e-06
1.91964e-06
1.74403e-06
1.70601e-06
1.66996e-06
1.64324e-06
1.83437e-06
1.79175e-06
1.91375e-06
1.90163e-06
2.23481e-06
2.15439e-06
2.43051e-06
2.54159e-06
5.36509e-06
5.34162e-06
3.10381e-06
3.21997e-06
3.19257e-06
3.48966e-06
3.82058e-06
2.00993e-06
2.02532e-06
1.6517e-06
1.67176e-06
1.59446e-06
1.61057e-06
1.59859e-06
1.61023e-06
1.54255e-06
1.53065e-06
3.03328e-06
3.02185e-06
2.32366e-06
2.41178e-06
2.54099e-06
2.52984e-06
1.808e-06
1.77294e-06
1.70288e-06
1.67285e-06
2.95942e-06
3.10949e-06
3.0817e-06
2.58275e-06
2.59854e-06
2.67811e-06
2.14236e-06
2.06163e-06
2.02024e-06
2.03908e-06
2.11708e-06
2.67288e-06
2.84756e-06
3.7416e-06
2.1358e-06
1.59254e-06
1.63306e-06
1.3904e-06
1.40271e-06
1.3844e-06
1.37948e-06
1.38709e-06
1.4034e-06
2.11319e-06
2.11541e-06
2.20251e-06
2.09191e-06
2.18537e-06
1.72908e-06
1.67724e-06
1.61217e-06
1.66142e-06
1.5908e-06
1.54724e-06
1.57873e-06
1.56161e-06
1.63865e-06
1.68371e-06
1.90532e-06
1.88402e-06
1.74236e-06
1.74285e-06
1.83727e-06
1.9008e-06
6.45852e-06
6.28807e-06
7.26123e-06
7.41229e-06
7.43776e-06
7.36477e-06
6.02114e-06
5.86814e-06
4.36461e-06
4.12808e-06
4.26012e-06
4.05801e-06
4.91101e-06
4.67196e-06
5.58198e-06
5.85191e-06
4.89126e-06
4.61929e-06
5.01524e-06
5.32002e-06
4.55867e-06
4.86074e-06
3.45715e-06
3.26462e-06
3.50363e-06
3.41063e-06
3.70944e-06
3.8744e-06
2.57056e-06
2.68318e-06
2.58923e-06
2.73266e-06
2.51028e-06
2.59129e-06
2.23637e-06
2.25294e-06
2.38551e-06
2.28894e-06
2.31478e-06
2.5324e-06
2.39893e-06
3.23702e-06
3.2517e-06
2.87559e-06
2.73157e-06
3.36405e-06
3.1915e-06
5.7856e-06
5.55029e-06
7.39033e-05
7.39929e-05
5.18735e-05
5.43097e-05
5.03756e-05
5.00716e-05
2.82549e-05
2.96449e-05
3.77912e-05
3.60111e-05
4.2347e-05
4.03066e-05
0.000159897
0.00016791
0.000101042
0.000101415
9.42995e-05
9.38227e-05
0.000124418
0.000119247
0.000122225
0.000117078
0.000154938
0.000148254
0.000154081
0.000161289
0.000592434
0.000565967
0.00161727
0.00155487
0.00189728
0.00195673
0.00238515
0.00239988
0.00246219
0.00247806
0.000446642
0.000448003
0.0026627
0.00264172
0.00265917
2.84902e-06
2.79589e-06
1.53274e-06
1.58211e-06
1.63363e-06
1.39314e-06
1.44217e-06
1.30319e-06
1.2647e-06
3.95942e-06
4.047e-06
3.039e-06
2.92609e-06
2.91132e-06
2.75297e-06
2.07587e-06
2.13887e-06
2.20422e-06
2.13315e-06
7.7963e-06
8.4498e-06
0.000567602
0.000593525
0.000343687
0.000339104
0.000493694
0.000486963
0.00113201
0.00112333
1.29561e-05
1.23858e-05
8.95498e-06
9.27635e-06
1.29932e-05
1.3447e-05
1.4368e-05
1.48697e-05
1.22942e-05
1.26042e-05
1.11853e-05
1.11974e-05
1.13271e-05
1.08462e-05
1.10194e-05
2.17986e-06
2.1081e-06
1.77664e-06
1.8136e-06
1.71575e-06
1.6909e-06
1.70457e-06
1.79485e-06
1.77092e-06
1.75425e-06
1.95579e-06
1.9132e-06
2.16727e-06
2.18311e-06
2.08185e-06
2.01174e-06
2.66281e-06
2.55163e-06
5.01353e-06
4.97071e-06
2.92498e-06
3.0384e-06
3.35335e-06
3.08257e-06
2.09565e-06
2.12974e-06
1.64239e-06
1.62516e-06
1.64331e-06
1.64852e-06
1.59779e-06
1.61667e-06
1.54755e-06
1.56173e-06
2.76981e-06
2.75858e-06
2.50724e-06
2.61055e-06
2.08736e-06
2.00736e-06
1.80987e-06
1.85041e-06
1.67741e-06
1.64999e-06
2.76143e-06
2.62337e-06
2.63525e-06
4.14133e-06
4.3388e-06
4.03067e-06
2.99803e-06
3.0815e-06
3.38649e-06
3.49092e-06
3.57581e-06
3.83451e-06
2.07995e-06
1.96592e-06
2.5953e-06
2.45828e-06
1.41221e-06
1.3891e-06
1.42395e-06
1.44074e-06
1.41182e-06
1.42779e-06
1.38896e-06
1.37695e-06
1.89065e-06
1.91892e-06
2.01731e-06
1.78518e-06
1.72527e-06
1.59656e-06
1.64339e-06
1.51416e-06
1.51698e-06
1.6384e-06
1.60397e-06
1.87425e-06
1.87621e-06
1.84598e-06
1.80351e-06
7.87237e-06
8.04289e-06
8.00196e-06
7.86282e-06
7.0331e-06
7.11163e-06
5.51327e-06
5.66863e-06
4.72915e-06
3.91017e-06
3.71127e-06
4.65815e-06
4.86341e-06
5.43788e-06
5.16674e-06
4.45494e-06
4.72651e-06
4.13383e-06
3.87263e-06
3.00163e-06
2.95057e-06
4.09129e-06
4.26003e-06
3.43539e-06
3.56304e-06
2.95703e-06
3.07757e-06
2.57077e-06
2.46176e-06
2.63523e-06
2.71796e-06
2.49336e-06
2.47433e-06
1.96916e-06
1.95365e-06
1.95115e-06
1.96085e-06
2.23099e-06
2.29064e-06
2.27483e-06
3.41801e-06
3.43157e-06
2.81541e-06
2.67029e-06
3.30471e-06
3.1321e-06
7.71655e-05
7.72248e-05
7.73569e-05
7.74464e-05
5.70451e-05
5.71198e-05
4.96824e-05
4.97365e-05
2.79856e-05
2.67682e-05
2.97027e-05
2.83072e-05
3.78958e-05
3.61031e-05
5.17465e-05
5.43253e-05
5.54829e-05
5.52455e-05
8.67944e-05
8.69059e-05
0.00010576
0.000106158
8.21003e-05
8.16691e-05
0.00019094
0.000199825
0.000132788
0.000133501
0.000138902
0.000145014
0.000117602
0.000112611
0.0001211
0.00011599
0.000184376
0.000193044
0.000152608
0.000145817
0.000162457
0.000155144
0.00026381
0.000265293
0.00162619
0.0016346
0.0019685
0.00190839
0.00237082
0.00238539
0.00218388
0.0021177
0.000798885
0.000835116
0.000449
0.000427949
0.000851299
0.000848759
0.00109679
0.00109247
1.80579e-06
1.72829e-06
1.71356e-06
2.57755e-06
2.75483e-06
1.84265e-06
1.93863e-06
1.78746e-06
1.66325e-06
1.29507e-05
1.37349e-05
1.50533e-06
1.5642e-06
4.58596e-06
4.69614e-06
4.14256e-06
4.24305e-06
2.56059e-06
2.73492e-06
2.42771e-06
2.52367e-06
2.46603e-06
2.41355e-06
6.10203e-06
5.73036e-06
9.19703e-06
9.14102e-06
0.00104281
0.0010703
0.000274648
0.000271011
0.000356198
0.000361029
0.000334546
0.000330008
0.00132856
0.00131775
0.000923879
0.000912661
5.62981e-06
5.37518e-06
2.79833e-05
2.7873e-05
1.73851e-05
1.71102e-05
6.51376e-06
6.21912e-06
1.02347e-05
9.88559e-06
1.40964e-05
1.36528e-05
1.21161e-05
1.24295e-05
1.20464e-05
1.17544e-05
1.11257e-05
1.1376e-05
1.15045e-05
6.17808e-06
1.78551e-06
1.82813e-06
1.63934e-06
1.66529e-06
1.86115e-06
1.89926e-06
1.93647e-06
1.88248e-06
2.10676e-06
2.09234e-06
2.45216e-06
2.3515e-06
2.4259e-06
2.31893e-06
5.31566e-06
5.31058e-06
5.56728e-06
4.57477e-06
4.66911e-06
2.58636e-06
2.68771e-06
3.58442e-06
3.67596e-06
1.94936e-06
1.90366e-06
1.91861e-06
1.95202e-06
1.71403e-06
1.7297e-06
1.63285e-06
1.56505e-06
1.58078e-06
1.62242e-06
1.63469e-06
2.63446e-06
2.73214e-06
2.84167e-06
2.79749e-06
2.37092e-06
2.28377e-06
1.85593e-06
1.91021e-06
2.20755e-06
2.16079e-06
2.10392e-06
2.49496e-06
2.39232e-06
2.83251e-06
2.68413e-06
3.39822e-06
3.22449e-06
3.25546e-06
2.61278e-06
2.51094e-06
2.65322e-06
2.81837e-06
2.88676e-06
3.18942e-06
3.28345e-06
3.66425e-06
3.9213e-06
2.2093e-06
1.56485e-06
1.57243e-06
1.44553e-06
1.43716e-06
1.41723e-06
1.40294e-06
1.41129e-06
1.41079e-06
1.7775e-06
1.75422e-06
1.96353e-06
2.0299e-06
1.79754e-06
1.73766e-06
1.67198e-06
1.62529e-06
1.66493e-06
1.64612e-06
1.55202e-06
1.54972e-06
1.8147e-06
1.83555e-06
7.26734e-06
7.44773e-06
6.65201e-06
6.79208e-06
7.57035e-06
7.715e-06
7.30631e-06
7.25245e-06
5.17889e-06
5.33164e-06
5.17278e-06
5.0181e-06
4.29953e-06
4.53713e-06
4.45039e-06
4.24692e-06
4.41912e-06
4.15026e-06
3.649e-06
3.69828e-06
4.00999e-06
4.14734e-06
3.22901e-06
3.10612e-06
3.073e-06
3.22886e-06
2.56962e-06
2.5209e-06
2.77031e-06
2.85473e-06
2.34923e-06
2.36507e-06
2.03906e-06
2.05529e-06
2.14102e-06
2.13041e-06
2.14435e-06
2.20457e-06
3.42283e-06
3.44589e-06
3.60882e-06
3.62003e-06
3.02888e-06
2.9692e-06
7.37644e-05
7.37002e-05
5.97487e-05
5.98302e-05
5.45379e-05
5.20781e-05
3.76698e-05
3.58999e-05
4.76773e-05
4.73559e-05
2.61348e-05
2.59269e-05
2.6974e-05
2.69267e-05
3.1101e-05
3.2629e-05
3.43156e-05
3.42334e-05
4.25313e-05
4.04753e-05
5.3352e-05
5.08457e-05
0.000160604
0.000168191
8.29889e-05
8.28842e-05
7.82202e-05
8.19604e-05
7.71312e-05
7.67244e-05
8.86647e-05
8.81883e-05
9.47772e-05
0.000161493
0.000153978
0.00014676
0.000139926
0.000131866
0.000138334
0.000144425
0.000118125
0.00011312
0.000112102
0.000111584
0.000122534
0.000121976
0.000127845
0.000134006
0.000179279
0.000171393
0.000153827
0.000147122
0.00016362
0.000156227
0.000256149
0.000244707
0.000207641
0.000206743
0.00153702
0.00159602
0.0014684
0.00152932
0.00184763
0.00183705
0.00226723
0.00230983
0.00239905
0.00241395
0.00226511
0.00231661
0.0007972
0.000833116
0.000395227
0.000394207
0.00060242
0.000602577
0.000933956
0.000937056
0.000884587
0.000887538
0.00147983
0.00147668
0.00263933
0.002638
1.91878e-06
1.81419e-06
2.36321e-06
2.4216e-06
1.76443e-06
1.83775e-06
2.08302e-06
2.18065e-06
1.64073e-06
1.67342e-06
1.75394e-06
3.14791e-06
3.08684e-06
1.19701e-06
1.17431e-06
4.35543e-06
4.55036e-06
4.45614e-06
3.83432e-06
3.74872e-06
2.918e-06
3.10142e-06
2.01557e-06
2.01763e-06
1.96307e-06
1.93346e-06
2.29824e-06
2.28165e-06
2.6587e-06
7.92109e-06
7.75227e-06
8.50795e-06
7.85532e-06
0.00050496
0.000498655
0.00122302
0.00123224
0.00049604
0.000500889
0.000323749
0.000319865
0.000374117
0.000379207
0.00128845
0.00127573
0.000952154
0.000963791
7.37457e-06
7.0134e-06
6.33265e-06
6.04789e-06
2.66597e-05
2.67514e-05
2.36367e-05
2.271e-05
1.99491e-05
1.98577e-05
1.78296e-05
1.79116e-05
9.55145e-06
9.23144e-06
1.41537e-05
1.46582e-05
1.51474e-05
1.5631e-05
1.19815e-05
1.22978e-05
1.26571e-05
1.23463e-05
1.09762e-05
1.07734e-05
1.95921e-06
2.0168e-06
1.9205e-06
1.97754e-06
1.6803e-06
1.65081e-06
1.72162e-06
1.69199e-06
1.9706e-06
2.01745e-06
2.03638e-06
2.02324e-06
2.25912e-06
2.16486e-06
2.32398e-06
2.23206e-06
4.17242e-06
4.18393e-06
4.41317e-06
2.83157e-06
2.87849e-06
2.72428e-06
2.80639e-06
3.32186e-06
3.43325e-06
1.97041e-06
2.03867e-06
1.66029e-06
1.69355e-06
1.58728e-06
1.57015e-06
3.10686e-06
3.06159e-06
2.67847e-06
2.72191e-06
1.65324e-06
1.63219e-06
1.88395e-06
1.84467e-06
1.77264e-06
1.81204e-06
3.06213e-06
3.24885e-06
3.16021e-06
2.61744e-06
2.68368e-06
2.38943e-06
2.30349e-06
2.87902e-06
2.81065e-06
2.7338e-06
2.49765e-06
3.5076e-06
3.48738e-06
7.73704e-06
7.66686e-06
2.41072e-06
2.29574e-06
2.69355e-06
2.92062e-06
2.75336e-06
3.57434e-06
3.69602e-06
3.78659e-06
3.34947e-06
3.43425e-06
1.53177e-06
1.50615e-06
1.51504e-06
1.53285e-06
1.42219e-06
1.41509e-06
1.35232e-06
1.34329e-06
1.35011e-06
1.45555e-06
1.45697e-06
1.41392e-06
1.42093e-06
1.71633e-06
1.69579e-06
1.94836e-06
1.88668e-06
1.93618e-06
1.86465e-06
1.67545e-06
1.73133e-06
1.6014e-06
1.6194e-06
6.95363e-06
7.13922e-06
8.22707e-06
8.50224e-06
6.94051e-06
7.09855e-06
6.25685e-06
6.38836e-06
6.37556e-06
6.65357e-06
6.64669e-06
6.54167e-06
5.46175e-06
5.5803e-06
5.28811e-06
5.34778e-06
4.48067e-06
4.71905e-06
3.51659e-06
3.46393e-06
3.94012e-06
3.80646e-06
3.89471e-06
4.0617e-06
2.93631e-06
2.81816e-06
3.21683e-06
3.37523e-06
2.44589e-06
2.39786e-06
2.34967e-06
2.36583e-06
2.13306e-06
2.14963e-06
2.06134e-06
2.12165e-06
3.24098e-06
3.26358e-06
2.32934e-05
2.32632e-05
6.28279e-05
6.27519e-05
6.44349e-05
6.74702e-05
5.17873e-05
5.42138e-05
4.52959e-05
4.74081e-05
3.58082e-05
3.76448e-05
6.47747e-05
6.51146e-05
3.78766e-05
3.97791e-05
2.88959e-05
2.90004e-05
3.33185e-05
3.15604e-05
2.97628e-05
2.83652e-05
3.81115e-05
3.62883e-05
3.27017e-05
3.11658e-05
3.43963e-05
4.27437e-05
4.06748e-05
4.46796e-05
3.95426e-05
4.14892e-05
5.02408e-05
5.26874e-05
0.000198378
0.000207765
0.000184837
0.000176308
0.000120497
0.00012064
9.02003e-05
8.99854e-05
6.9248e-05
6.89279e-05
7.12039e-05
6.79182e-05
9.66891e-05
9.71618e-05
8.46518e-05
8.41958e-05
0.000101814
0.000101295
0.00016763
0.000175547
0.000139163
0.000138154
0.000114176
0.000113638
0.000128063
0.000133572
0.000116542
0.000121677
0.000106608
0.000106085
0.000134727
0.000135405
0.000170454
0.000178309
0.000159727
0.000160898
0.000140447
0.000147137
0.000187801
0.000179367
0.000450738
0.000472575
0.000220421
0.000210672
0.000227322
0.000228227
0.000208429
0.000666317
0.000696748
0.00207424
0.00200492
0.00159817
0.00153689
0.00201031
0.00194872
0.00198968
0.00192856
0.00210901
0.00205008
0.00232348
0.00228036
0.00238573
0.00237259
0.00233873
0.00228599
0.00245039
0.00246606
0.000235122
0.000224678
0.00059911
0.000600585
0.000734484
0.000736525
0.000659835
0.000691488
0.000971868
0.000975783
0.000890407
0.000893203
0.00136719
0.00136248
0.00213449
0.00213179
0.00267816
0.00268859
5.77504e-06
5.70433e-06
2.61585e-06
2.46841e-06
2.54753e-06
2.224e-06
2.28379e-06
2.11248e-06
2.15974e-06
2.20552e-06
1.91679e-06
1.47784e-06
4.4311e-06
4.59814e-06
2.15907e-06
2.25101e-06
1.22197e-06
1.21212e-06
1.62697e-06
1.56418e-06
4.25736e-06
4.16707e-06
2.71572e-06
2.59653e-06
3.266e-06
3.08281e-06
1.97388e-06
2.0587e-06
1.95171e-06
2.12164e-06
2.06368e-06
2.04211e-06
2.13496e-06
3.18941e-06
3.02856e-06
3.0125e-06
1.19576e-05
1.20222e-05
6.35629e-06
5.98443e-06
2.41517e-05
2.2881e-05
0.000211382
0.000211534
0.000738821
0.000707159
0.00120968
0.0012188
0.000548318
0.000524097
0.000223446
0.000225727
0.000336229
0.00034032
0.000318472
0.000314171
0.000427201
0.000421376
0.000584538
0.000576977
0.00158073
0.00159141
0.00108853
0.0010754
0.00184644
0.00188845
5.49853e-06
5.24729e-06
5.77804e-06
5.52085e-06
1.77284e-05
1.85034e-05
2.13063e-05
2.23434e-05
2.06332e-05
2.10771e-05
2.04649e-05
1.72848e-05
1.71957e-05
7.68152e-06
8.04365e-06
1.13898e-05
1.17622e-05
1.3926e-05
1.44328e-05
1.49032e-05
1.53947e-05
1.48775e-05
1.44578e-05
1.04868e-05
1.07514e-05
1.22208e-05
1.25321e-05
1.17592e-05
1.20396e-05
6.40974e-06
6.40035e-06
1.89407e-06
1.95093e-06
1.97304e-06
2.04089e-06
1.69983e-06
1.71306e-06
1.66486e-06
1.64019e-06
2.03384e-06
2.08505e-06
1.86186e-06
1.85021e-06
2.24535e-06
2.33432e-06
5.73897e-06
5.70117e-06
4.19268e-06
2.97565e-06
1.61757e-06
1.60243e-06
2.92509e-06
2.96989e-06
1.61324e-06
1.89349e-06
1.93996e-06
1.81661e-06
1.85831e-06
2.35477e-06
2.29482e-06
2.4361e-06
2.31587e-06
2.23955e-06
2.23963e-06
3.04021e-06
3.29542e-06
3.25677e-06
4.38747e-06
5.43118e-06
5.3835e-06
2.32119e-06
2.2011e-06
2.84171e-06
2.75935e-06
3.3028e-06
3.10548e-06
4.03424e-06
1.63352e-06
1.69032e-06
1.80156e-06
1.54394e-06
1.52927e-06
1.51675e-06
1.5541e-06
1.48908e-06
1.51592e-06
1.37648e-06
1.37694e-06
1.34968e-06
1.35418e-06
1.48287e-06
1.48516e-06
1.44268e-06
1.43498e-06
1.79396e-06
1.74875e-06
1.84516e-06
1.81911e-06
1.78782e-06
1.8528e-06
5.6392e-06
5.79932e-06
6.32591e-06
6.52073e-06
7.33646e-06
7.64036e-06
7.93857e-06
7.12083e-06
6.99073e-06
7.20822e-06
7.52487e-06
7.19516e-06
6.87666e-06
6.0665e-06
5.81917e-06
6.16535e-06
5.68643e-06
3.00178e-06
2.91568e-06
3.33774e-06
3.28509e-06
4.30075e-06
4.47062e-06
2.80486e-06
2.68934e-06
2.47317e-06
2.48871e-06
2.19113e-06
2.16322e-06
2.67591e-05
2.78505e-05
1.4707e-05
1.47282e-05
0.000133083
0.00012715
3.65004e-05
3.47874e-05
3.63432e-05
3.80011e-05
5.95526e-05
5.94356e-05
4.5192e-05
4.7283e-05
5.20177e-05
5.44702e-05
4.96212e-05
3.05863e-05
2.93665e-05
5.92308e-05
5.88942e-05
6.24391e-05
6.54488e-05
3.7041e-05
3.5448e-05
2.82336e-05
2.70106e-05
2.72385e-05
2.74313e-05
2.72589e-05
2.7366e-05
2.56964e-05
2.44705e-05
2.70303e-05
3.44751e-05
3.45513e-05
3.27729e-05
3.12301e-05
4.29776e-05
4.09013e-05
4.43006e-05
4.44809e-05
6.18706e-05
5.89846e-05
5.29042e-05
5.04379e-05
0.000182832
0.000191332
0.000176177
0.000184682
0.000125208
0.00013067
0.000120305
7.22232e-05
7.21351e-05
0.00010065
0.000105337
8.1191e-05
8.15789e-05
7.49904e-05
7.53374e-05
7.36131e-05
7.32307e-05
8.33877e-05
8.29603e-05
8.91357e-05
8.51034e-05
9.7236e-05
9.6727e-05
0.000102311
0.000194585
0.000185809
0.000153348
0.000160901
0.000118663
0.000123801
0.00014573
0.000139632
0.000122753
0.000123268
0.000113766
0.000108932
0.000116936
0.000116403
0.000122991
0.000185515
0.000194227
0.000155937
0.000149238
0.000161995
0.000148096
0.000141289
0.000190499
0.000181933
0.000171315
0.000221067
0.000220725
0.000221331
0.000211508
0.000218979
0.000219632
0.000228856
0.000218348
0.000563013
0.000589316
0.00120804
0.00121695
0.00191653
0.00189557
0.00194889
0.00160787
0.0015461
0.00159132
0.00165328
0.00178633
0.00172466
0.00186723
0.00185771
0.00211973
0.00205985
0.00233663
0.00229292
0.00235901
0.00234495
0.00208039
0.0021464
0.00232783
0.00227564
0.00242662
0.0024661
0.000311608
0.000326357
0.000358796
0.000376117
0.000623563
0.000625333
0.000542395
0.000543269
0.000434394
0.000415523
0.00063241
0.000632687
0.000729483
0.000727905
0.000960928
0.000918584
0.000979492
0.000982961
0.00105009
0.00104571
0.00135761
0.00135319
0.00259995
0.002607
0.00267675
0.00267967
0.0026859
6.85342e-06
7.1432e-06
1.29092e-06
1.32755e-06
2.28706e-06
2.19217e-06
2.31903e-06
2.64528e-06
2.2887e-06
2.25808e-06
1.90363e-06
2.05025e-06
2.14846e-06
2.05048e-06
1.29083e-05
1.36823e-05
2.89524e-06
2.95629e-06
1.5376e-06
1.60174e-06
1.24861e-06
1.2461e-06
1.18978e-06
1.16972e-06
1.28879e-06
1.26722e-06
1.50527e-06
1.53292e-06
3.79209e-06
3.56625e-06
2.82122e-06
2.70898e-06
3.28499e-06
3.3748e-06
3.46019e-06
2.00077e-06
2.11697e-06
2.08511e-06
1.67609e-06
1.59667e-06
2.21642e-06
2.15882e-06
2.33626e-06
1.36884e-06
1.32074e-06
1.30991e-06
8.39531e-06
8.25782e-06
8.0959e-06
6.59534e-06
7.1786e-06
4.08044e-05
4.02929e-05
6.56003e-05
6.58745e-05
0.000327422
0.000324463
0.000798803
0.000764268
0.000746356
0.000714413
0.00119682
0.00120585
0.0010035
0.00103971
0.000519031
0.000543028
0.000222502
0.000219755
0.000353373
0.000357681
0.000362155
0.000366762
0.000303152
0.000299073
0.000423868
0.000429583
0.000470555
0.000464129
0.00121531
0.00120005
0.00153584
0.0015616
0.00164576
0.00165648
0.00100954
0.000997975
0.00109172
0.00108107
0.00142426
0.00146947
0.00204298
0.00205672
6.04835e-06
5.76457e-06
6.21361e-06
6.49864e-06
1.83141e-05
1.75351e-05
2.25163e-05
2.14835e-05
1.59145e-05
1.56677e-05
2.02356e-05
2.04187e-05
1.70787e-05
1.69356e-05
1.04488e-05
1.0978e-05
9.20242e-06
8.94457e-06
1.36878e-05
1.41967e-05
1.36777e-05
1.3227e-05
1.50378e-05
1.55254e-05
1.40598e-05
1.36825e-05
1.06217e-05
1.03925e-05
1.18192e-05
1.2139e-05
1.16429e-05
1.19246e-05
1.23357e-05
1.26458e-05
6.79282e-06
7.02372e-06
1.83221e-06
1.81262e-06
1.8637e-06
2.0294e-06
2.09316e-06
1.73328e-06
1.75036e-06
1.99655e-06
5.83728e-06
6.37067e-06
6.19149e-06
1.65117e-06
1.64418e-06
1.63297e-06
1.95347e-06
2.02528e-06
2.80845e-06
2.7016e-06
2.04656e-06
2.13192e-06
2.17289e-06
2.55897e-06
3.58426e-06
5.73327e-06
5.72172e-06
4.32352e-06
4.59824e-06
4.65258e-06
2.40949e-06
2.52418e-06
3.22165e-06
3.13644e-06
1.82024e-06
1.87479e-06
1.91993e-06
1.61332e-06
1.63174e-06
1.4755e-06
1.44046e-06
1.50132e-06
1.48528e-06
1.52042e-06
1.55132e-06
1.39251e-06
1.39289e-06
1.36856e-06
1.36398e-06
1.49496e-06
1.48607e-06
1.43167e-06
1.43251e-06
1.8141e-06
1.86518e-06
6.77899e-06
6.61438e-06
6.72624e-06
7.03066e-06
7.75033e-06
7.57511e-06
6.51852e-06
6.86994e-06
6.94395e-06
6.98801e-06
5.48413e-06
3.0711e-06
3.15903e-06
2.84757e-06
2.79732e-06
3.74594e-06
3.61557e-06
2.23454e-06
2.24727e-06
1.12504e-05
1.08842e-05
7.73166e-06
7.82349e-06
1.55074e-05
1.54918e-05
0.000115306
0.000115279
0.000116233
0.00011629
3.42886e-05
3.27598e-05
4.5426e-05
4.75602e-05
4.77004e-05
4.55597e-05
3.12135e-05
2.99579e-05
6.55499e-05
6.56482e-05
5.69606e-05
5.96554e-05
4.95555e-05
4.94782e-05
5.19482e-05
5.43928e-05
3.07139e-05
2.94991e-05
5.64848e-05
5.61496e-05
6.21063e-05
6.17681e-05
4.63561e-05
4.42982e-05
2.87652e-05
2.75194e-05
2.84974e-05
2.72636e-05
2.75934e-05
2.63349e-05
3.12356e-05
3.30051e-05
2.57089e-05
2.54849e-05
2.70959e-05
2.71715e-05
2.44345e-05
2.56548e-05
3.61954e-05
3.80021e-05
4.49016e-05
4.51431e-05
4.18899e-05
3.98991e-05
5.87121e-05
6.15757e-05
5.31252e-05
5.06388e-05
0.000197646
0.000207004
0.000200788
0.000210256
0.000176101
0.000184562
0.000126129
0.000126329
0.000105013
0.00010507
7.55599e-05
7.5653e-05
8.13937e-05
8.52283e-05
7.66295e-05
7.69235e-05
7.78503e-05
7.74748e-05
6.85981e-05
6.82611e-05
6.58633e-05
6.55336e-05
0.000101144
0.000101635
9.09997e-05
9.14621e-05
8.96037e-05
9.00695e-05
8.12387e-05
8.08079e-05
0.000102791
0.000103262
9.28564e-05
9.23614e-05
0.000158857
0.000151971
0.000185116
0.000193831
0.000152765
0.000160369
0.000116298
0.00011582
0.000126999
0.000132539
0.000139347
0.000145466
0.000143718
0.000137665
0.00011429
0.000109441
0.00011164
0.000111115
0.000183172
0.000191793
0.000156825
0.000150098
0.000165985
0.000158524
0.000149085
0.00014215
0.000173769
0.000172548
0.000449594
0.000471451
0.000264322
0.000276565
0.000230488
0.000231512
0.000239864
0.000239841
0.000217619
0.000216715
0.000661176
0.000691381
0.00127008
0.0013231
0.00209868
0.00211926
0.00178286
0.00171559
0.00169042
0.00169957
0.00173331
0.0016704
0.00169147
0.00162936
0.00166249
0.00159981
0.00179615
0.00173428
0.00191887
0.00197954
0.00232511
0.00233935
0.0023493
0.00230499
0.00216471
0.00209784
0.00234929
0.0022961
0.00248461
0.00250086
0.00250546
0.00252209
0.000284984
0.000285208
0.000326683
0.00031192
0.000377256
0.000360042
0.000626929
0.00062845
0.000470572
0.00047069
0.000433868
0.000415534
0.000663813
0.000664622
0.000631306
0.000602037
0.00080221
0.000765071
0.000726278
0.000724606
0.000930708
0.000927321
0.00115786
0.0011487
0.00141821
0.00142202
0.001954
0.0018841
0.00184294
0.00184409
0.00250375
0.00250256
0.00265505
7.44815e-06
7.73755e-06
5.26669e-06
5.54651e-06
1.38433e-06
1.43293e-06
2.895e-06
2.87113e-06
1.96823e-06
2.09241e-06
2.41021e-06
2.47322e-06
1.81031e-06
1.77982e-06
1.71338e-06
1.72873e-06
1.99077e-06
1.90923e-06
1.47564e-06
1.40422e-06
5.94445e-06
6.09832e-06
5.05828e-06
4.9347e-06
2.82116e-06
2.7113e-06
2.20193e-06
2.32753e-06
1.56451e-06
1.50272e-06
1.27533e-06
1.27943e-06
1.28205e-06
1.26597e-06
1.18659e-06
1.16893e-06
1.30998e-06
1.34537e-06
1.18347e-06
1.19828e-06
1.44661e-06
1.45968e-06
3.23499e-06
3.38045e-06
3.32599e-06
2.81918e-06
3.18271e-06
2.99833e-06
2.46606e-06
2.30269e-06
1.97587e-06
1.89868e-06
1.8378e-06
1.76509e-06
1.71509e-06
1.83369e-06
2.92092e-06
2.84777e-06
3.04929e-06
1.78243e-06
1.77844e-06
2.40267e-06
2.35022e-06
8.96636e-06
8.67042e-06
8.63332e-06
8.36334e-06
6.49695e-06
6.75791e-06
8.60909e-06
7.96092e-06
1.15085e-05
1.14592e-05
2.34082e-05
2.2454e-05
1.45194e-05
1.45948e-05
0.000311571
0.00029636
0.000273798
0.000260039
0.000555207
0.000529565
0.000546231
0.00057256
0.0010797
0.001052
0.00120675
0.00119358
0.00107519
0.00110944
0.000434178
0.000414765
0.000257844
0.00026015
0.000181837
0.000184036
0.000258554
0.000255271
0.000561122
0.000538964
0.000344392
0.000327607
0.000307247
0.000311361
0.000288557
0.000284698
0.000486296
0.000492687