/*--------------------------------*- C++ -*----------------------------------*\
  =========                 |
  \\      /  F ield         | OpenFOAM: The Open Source CFD Toolbox
   \\    /   O peration     | Website:  https://openfoam.org
    \\  /    A nd           | Version:  7
     \\/     M anipulation  |
\*---------------------------------------------------------------------------*/
FoamFile
{
    version     2.0;
    format      ascii;
    class       volScalarField;
    location    "0.04";
    object      p;
}
// * * * * * * * * * * * * * * * * * * * * * * * * * * * * * * * * * * * * * //

dimensions      [0 2 -2 0 0 0 0];

internalField   nonuniform List<scalar> 
238806
(
6.75707e-07
6.7137e-07
-4.44423e-08
1.13803e-07
2.63169e-08
6.13703e-07
6.21965e-07
7.01393e-07
7.74638e-07
1.62022e-07
1.83345e-07
2.51762e-07
7.56127e-08
7.14955e-08
-8.16492e-08
-9.61203e-08
1.35923e-07
9.5455e-08
2.13424e-06
2.1512e-06
9.49296e-08
8.49434e-08
-8.0981e-08
-4.80525e-08
-2.04002e-08
9.86737e-08
4.12153e-08
9.35405e-08
-1.00913e-08
-9.95199e-08
1.90303e-06
2.11196e-06
5.36498e-08
7.53473e-08
1.37523e-07
1.5256e-07
4.04559e-10
3.53833e-10
1.3947e-07
2.65283e-07
2.09837e-07
-7.08323e-09
2.36835e-06
2.6019e-06
1.92282e-06
1.90379e-06
-4.25095e-08
-2.69011e-08
9.73463e-08
1.1889e-07
2.73048e-07
2.83695e-07
8.31268e-08
7.84423e-08
-2.93323e-10
-3.08918e-10
1.72762e-07
6.76059e-08
1.6009e-07
2.36736e-07
1.79947e-07
3.3325e-07
2.10503e-07
2.75671e-07
3.17034e-07
1.71602e-06
1.71755e-06
8.80329e-07
7.91456e-07
4.46842e-07
3.9861e-07
6.87617e-08
4.9739e-08
1.15643e-07
9.41033e-08
2.07778e-07
1.9336e-07
1.37076e-07
1.51902e-07
3.35731e-09
3.30677e-09
6.2122e-08
9.06365e-08
1.04963e-06
1.10636e-06
3.96868e-07
3.56579e-07
4.64127e-08
-3.11121e-08
8.50351e-08
4.79872e-08
3.34182e-07
2.21706e-07
1.974e-06
1.92223e-06
2.67256e-07
2.9531e-07
1.54959e-07
1.19485e-07
-6.35894e-09
1.69458e-06
8.88811e-07
8.39363e-07
7.51568e-07
7.54544e-07
3.84796e-08
3.20007e-08
1.00605e-07
8.3368e-08
7.24704e-08
5.13005e-08
2.00192e-07
2.22621e-07
2.53983e-07
2.43903e-07
7.90309e-08
8.6921e-08
2.88701e-10
4.02631e-10
1.75601e-10
-1.29538e-07
-1.23964e-07
8.70456e-07
8.22649e-07
6.82837e-07
6.9147e-07
-1.09768e-07
-1.29941e-07
1.82601e-08
2.21033e-08
2.76049e-07
1.20061e-08
6.49685e-08
-2.03571e-08
1.38904e-07
2.85034e-07
1.81604e-06
2.03481e-06
-2.2557e-07
-5.26947e-08
-1.07008e-07
-5.56474e-08
1.93612e-07
1.25591e-06
1.01073e-06
1.12658e-06
1.06657e-06
7.49439e-07
7.91649e-07
5.30365e-07
4.95659e-07
3.38811e-07
3.18658e-07
2.86625e-08
1.98131e-08
8.02583e-08
6.81354e-08
6.60225e-08
4.89183e-08
8.69155e-08
7.81481e-08
1.87848e-07
1.76228e-07
2.83588e-07
2.73201e-07
1.33456e-07
1.48264e-07
3.68825e-09
3.74116e-09
4.04523e-10
3.55022e-10
5.63907e-08
8.08794e-08
-4.47807e-08
-3.29225e-08
-1.3775e-08
9.77653e-07
9.23922e-07
3.12856e-07
2.99693e-07
-9.62931e-08
-1.21289e-07
-4.73855e-08
8.88724e-08
6.40696e-09
5.96347e-08
1.02412e-06
9.40068e-07
2.19675e-06
2.45628e-06
2.34985e-06
2.5887e-06
1.0036e-06
8.41927e-07
1.51576e-07
1.22642e-08
1.58248e-07
-3.45609e-08
-5.1439e-08
1.38719e-08
-5.70991e-08
2.047e-06
2.09838e-06
1.12338e-06
1.06359e-06
9.91667e-07
8.81339e-07
3.40393e-07
3.04849e-07
4.4232e-07
4.74363e-07
-5.42054e-08
-6.09728e-08
1.16912e-08
4.08497e-09
1.8191e-08
3.16183e-08
2.34291e-08
3.79145e-08
8.82419e-08
1.07711e-07
1.99412e-07
1.81963e-07
2.19267e-07
2.56375e-07
2.47009e-07
2.54777e-07
1.36331e-07
1.51336e-07
5.80103e-09
6.10663e-09
3.08043e-09
3.15719e-09
1.40518e-09
1.40294e-09
1.34766e-09
1.30928e-09
3.53965e-07
4.06124e-07
4.07464e-08
1.07831e-07
-1.28925e-07
-1.41162e-07
2.29399e-09
2.91171e-09
7.71186e-07
7.28187e-07
3.69079e-07
3.8595e-07
3.10129e-07
2.83654e-07
1.5789e-07
1.68464e-07
2.05737e-08
2.44839e-08
7.22314e-08
1.33321e-07
1.88519e-06
2.22622e-06
2.10377e-06
2.37907e-06
1.90726e-06
2.12331e-06
1.97896e-07
1.99847e-07
8.38449e-07
9.31387e-07
2.10666e-07
2.36239e-07
-5.20833e-09
-2.17129e-08
2.52283e-07
-4.57056e-08
1.18166e-08
1.89518e-07
1.38085e-07
1.86354e-06
1.80164e-06
1.42242e-06
1.34587e-06
9.47806e-07
1.0014e-06
5.86453e-07
6.26321e-07
5.90591e-07
5.94617e-07
4.58756e-07
4.44293e-07
-8.08075e-09
-5.18039e-09
-3.66664e-08
-4.59284e-08
1.23903e-08
5.46151e-09
8.57609e-09
-1.5823e-09
3.19959e-08
1.50977e-08
3.14151e-08
1.0528e-08
6.22702e-08
4.68524e-08
7.55697e-08
7.67554e-08
1.47203e-07
1.28361e-07
2.0435e-07
1.97417e-07
2.30062e-07
2.11034e-07
8.16767e-08
8.35215e-08
1.20404e-07
1.23076e-07
1.13963e-07
1.0354e-07
4.79385e-09
4.84734e-09
4.62576e-09
4.81251e-09
2.73165e-09
2.63312e-09
3.20926e-09
3.26186e-09
1.08498e-09
1.0299e-09
1.32425e-09
1.36315e-09
3.25704e-10
5.15941e-08
7.71227e-08
-1.05394e-07
-1.01644e-07
-5.75328e-10
-5.61749e-10
4.31043e-08
4.61448e-08
-2.77948e-08
-1.94717e-08
7.25129e-07
6.80625e-07
7.56107e-07
7.52462e-07
3.31286e-07
3.46646e-07
2.72536e-07
2.60703e-07
-2.07845e-07
-4.53711e-08
-9.44283e-08
-3.9165e-08
4.57644e-07
5.93495e-07
1.34308e-06
2.01484e-06
1.4789e-06
1.23577e-06
1.174e-06
2.14575e-06
1.9333e-06
2.39545e-07
2.42202e-07
4.46397e-07
5.53314e-07
6.25693e-07
8.50498e-07
-1.957e-07
-1.05473e-08
-5.98849e-08
3.1481e-07
3.16872e-07
3.33406e-08
9.48935e-08
2.1176e-07
-9.55881e-09
2.41361e-07
7.29537e-08
7.71873e-07
6.82405e-07
1.83931e-06
1.96645e-06
1.37166e-06
1.36209e-06
1.41018e-06
1.25931e-06
1.24306e-06
1.08087e-06
2.01574e-07
1.94248e-07
2.6907e-07
3.00695e-07
6.67412e-07
6.57375e-07
7.30751e-07
7.03069e-07
4.68881e-07
4.6705e-07
4.23237e-07
3.96122e-07
2.94515e-07
2.66408e-07
-5.62553e-08
-4.94799e-08
4.80011e-08
5.48807e-08
1.25855e-08
6.34915e-09
1.03479e-08
9.29347e-10
1.61396e-09
-1.20915e-08
-1.165e-08
-2.94561e-08
5.91399e-08
4.53049e-08
8.31286e-08
8.71835e-08
1.34876e-07
1.18426e-07
2.19325e-07
2.27733e-07
1.46552e-07
1.49063e-07
1.12346e-07
1.23985e-07
1.08924e-07
1.11362e-07
1.25482e-07
5.43843e-09
5.49858e-09
5.91725e-09
6.229e-09
3.93963e-09
3.78837e-09
4.01528e-09
4.16571e-09
3.12852e-09
3.04518e-09
2.2071e-09
2.2879e-09
1.11336e-09
1.06785e-09
7.02825e-10
6.89854e-10
2.83302e-09
2.90534e-09
3.43724e-08
1.78725e-07
3.78097e-08
-2.98539e-08
-2.42377e-08
-2.11897e-07
-1.23835e-07
-1.57708e-07
-1.27543e-07
-2.91077e-10
-3.11807e-10
1.03479e-08
1.03819e-08
-2.88168e-08
-2.58482e-08
-2.49589e-08
-2.73876e-08
-1.07207e-07
-1.24802e-07
7.22042e-07
8.71591e-07
6.57754e-07
6.43652e-07
4.42601e-07
4.50174e-07
3.46447e-07
1.85674e-07
1.52692e-07
2.16918e-07
1.45533e-08
-9.52857e-08
-2.30211e-09
-5.36099e-08
1.22717e-06
2.13568e-06
1.76866e-06
1.75257e-06
1.67268e-06
1.65732e-06
1.61514e-06
2.31424e-06
2.55712e-06
1.64347e-07
1.65827e-07
2.33756e-07
2.12709e-07
2.91269e-07
2.64058e-07
8.76369e-07
7.76117e-07
1.78255e-07
2.0018e-07
1.17765e-07
3.18905e-08
4.1289e-08
-4.36941e-08
-2.24835e-07
-7.39744e-08
-1.25076e-07
-7.03196e-08
-3.02949e-09
1.06164e-07
5.57861e-07
6.01336e-07
1.21051e-06
1.16842e-06
1.65168e-06
1.58625e-06
1.33749e-06
1.50108e-06
1.79022e-06
1.70684e-06
1.19802e-06
1.26504e-06
2.27275e-07
2.25197e-07
3.7665e-07
3.36117e-07
4.9153e-07
5.57628e-07
5.25206e-07
5.27891e-07
6.63428e-07
6.02369e-07
3.70084e-07
3.70647e-07
3.96975e-07
4.09133e-07
2.87755e-07
3.0489e-07
-3.25952e-08
-3.71457e-08
-1.12733e-07
-8.96096e-08
5.92701e-08
6.88778e-08
3.37846e-08
4.09824e-08
1.94314e-08
2.66168e-08
1.99004e-08
2.96982e-08
1.12217e-08
2.84298e-09
5.12088e-09
-7.51552e-09
-6.41349e-09
-2.23058e-08
7.30583e-08
8.66392e-08
5.57696e-08
4.34638e-08
1.08322e-07
1.11026e-07
9.50825e-08
1.02519e-07
1.23269e-07
1.08808e-07
1.54321e-07
1.77594e-07
1.49386e-07
1.45151e-07
2.59167e-07
2.62825e-07
1.74665e-07
1.81896e-07
1.45535e-07
1.37363e-07
1.24264e-07
1.12496e-07
9.43411e-08
8.58536e-08
5.13631e-09
5.049e-09
4.79243e-09
4.74142e-09
4.7274e-09
4.90886e-09
3.56804e-09
3.62337e-09
2.71676e-09
2.81757e-09
4.07675e-09
3.99248e-09
2.42573e-09
2.38131e-09
1.48147e-09
1.44342e-09
1.12575e-09
1.17139e-09
4.65083e-10
4.51767e-10
4.03969e-10
3.50214e-10
2.02361e-09
1.93517e-09
1.33131e-09
1.32324e-09
-6.49461e-08
-3.0207e-08
3.60734e-07
2.08285e-07
-4.90394e-08
-4.66789e-08
3.09326e-08
8.4501e-09
-2.12786e-08
3.30472e-09
-1.07379e-07
-9.71738e-08
-2.75269e-10
-2.9315e-10
5.93852e-11
9.83228e-11
4.28755e-09
3.84619e-09
1.87473e-09
2.53586e-09
-9.30579e-09
-1.11817e-08
-2.58047e-08
-3.48379e-08
-1.30448e-08
-3.34777e-08
5.99282e-07
4.8955e-07
8.50456e-07
9.74969e-07
1.00956e-06
1.10782e-06
5.99179e-07
6.69048e-07
4.92648e-07
5.02793e-07
3.22571e-07
3.53519e-07
2.53717e-07
2.51665e-07
-8.52284e-08
-1.11107e-07
1.13934e-07
1.0533e-07
5.41978e-08
2.86251e-08
-2.50214e-09
2.73591e-07
1.84085e-07
1.18753e-06
1.11327e-06
1.91498e-06
1.52102e-06
1.48829e-06
1.43665e-06
2.26147e-06
2.50741e-06
1.50056e-07
1.51345e-07
2.72525e-07
2.4811e-07
2.17661e-07
2.19881e-07
6.81545e-07
7.51064e-07
9.73074e-07
1.1128e-06
9.66226e-09
5.72998e-08
-1.13457e-07
3.60557e-08
1.09739e-07
1.06265e-07
2.20056e-07
-7.60113e-09
3.19902e-07
3.01816e-07
2.55833e-07
7.56994e-08
1.98179e-08
-8.21338e-08
2.42093e-08
6.86262e-07
6.27992e-07
1.70998e-06
1.56862e-06
1.52775e-06
1.53597e-06
1.59716e-06
1.4228e-06
2.71413e-07
1.86696e-07
2.66965e-07
2.74726e-07
2.37083e-07
4.86889e-07
5.43403e-07
5.78254e-07
5.11326e-07
6.37558e-07
7.42289e-07
6.2764e-07
6.5073e-07
5.05291e-07
5.38461e-07
3.1734e-07
3.25671e-07
4.15819e-07
4.16937e-07
3.64888e-07
3.27772e-07
-1.2867e-08
-1.65445e-08
-3.77568e-08
-3.25903e-08
-7.7572e-08
-8.74721e-08
-4.99961e-08
-5.78267e-08
4.12986e-08
5.24545e-08
5.52538e-08
6.38135e-08
3.55844e-08
4.36134e-08
2.54943e-08
1.89753e-08
1.92054e-08
3.01719e-08
7.31685e-09
-4.04214e-09
-1.23211e-09
-1.64539e-08
7.79223e-08
9.33095e-08
9.08254e-08
9.53415e-08
7.97551e-08
7.19802e-08
1.63967e-07
1.50368e-07
1.61869e-07
1.40223e-07
1.69963e-07
1.60181e-07
2.10276e-07
2.08818e-07
2.34951e-07
1.77096e-07
1.75675e-07
1.61691e-07
1.85862e-07
1.02095e-07
1.02087e-07
1.22251e-07
1.35194e-07
9.11537e-08
1.00406e-07
2.86647e-08
3.02181e-08
5.1182e-09
5.09853e-09
4.52439e-09
4.45991e-09
3.95314e-09
3.91574e-09
4.86018e-09
4.6417e-09
3.90652e-09
4.06248e-09
4.08778e-09
4.24349e-09
3.11721e-09
3.00935e-09
3.00498e-09
3.05155e-09
2.15718e-09
2.08514e-09
2.47953e-09
2.55733e-09
2.25829e-09
2.33933e-09
1.61501e-09
1.66467e-09
1.21733e-09
1.16681e-09
1.0712e-09
1.10078e-09
6.4929e-10
6.76086e-10
4.21115e-10
4.06925e-10
4.03913e-10
3.51875e-10
4.0539e-10
3.47102e-10
2.01139e-09
1.97419e-09
3.9364e-10
1.98769e-10
2.67419e-10
-1.59719e-08
-1.96171e-08
3.99826e-07
2.4238e-07
4.30734e-07
4.39172e-07
3.8835e-07
4.53709e-07
6.64735e-07
-5.4136e-08
-4.80684e-08
2.34687e-08
4.06647e-08
1.14378e-08
3.04208e-08
-5.92608e-08
-8.73013e-08
-1.99719e-08
-3.39134e-08
1.96351e-09
8.83322e-10
1.04208e-10
1.04508e-10
-2.61186e-10
-2.78467e-10
-2.608e-10
-2.74462e-10
-2.46709e-11
1.18125e-10
1.61094e-08
1.68931e-08
1.0216e-08
1.03115e-08
4.4188e-09
4.8326e-09
3.14232e-09
3.68039e-09
-1.42283e-08
-1.21302e-08
-3.03745e-08
-1.07719e-08
-3.4576e-08
-3.2756e-08
-2.65387e-08
3.22227e-07
3.77366e-07
7.33453e-07
5.25842e-07
8.38242e-07
9.92226e-07
7.57236e-07
6.70208e-07
7.05013e-07
7.38928e-07
4.86275e-07
5.14492e-07
3.26805e-07
3.22014e-07
3.98899e-07
4.45011e-07
2.03278e-07
2.1025e-07
-5.44059e-08
-6.12625e-08
1.39676e-07
1.33692e-07
2.85955e-08
9.23657e-08
2.55138e-07
1.5521e-07
1.28094e-06
1.36548e-06
1.14481e-06
1.12741e-06
1.41292e-06
1.24516e-06
2.08602e-06
1.8654e-06
1.80285e-07
1.8194e-07
2.25687e-07
2.05677e-07
3.42433e-07
4.42203e-07
6.90127e-07
6.25025e-07
1.03573e-06
1.13854e-06
1.39911e-07
1.25474e-07
-5.28875e-08
-8.59278e-08
-6.69399e-08
-1.38202e-07
8.28623e-08
7.56056e-08
3.23061e-08
1.27906e-08
-6.8411e-08
-5.90171e-08
2.39167e-07
2.01279e-07
-3.71245e-08
1.51391e-08
1.41175e-06
1.69465e-06
1.29703e-06
1.24463e-06
1.48451e-06
1.31529e-06
1.5173e-06
1.59837e-06
3.26349e-07
3.18771e-07
3.14327e-07
4.26847e-07
4.79252e-07
5.90515e-07
5.2335e-07
7.55947e-07
7.48369e-07
5.74575e-07
5.98503e-07
3.30098e-07
3.30478e-07
3.5623e-07
3.79282e-07
-3.28577e-08
-2.85727e-08
-4.23157e-08
-4.7858e-08
-8.46652e-08
-7.2826e-08
-4.44624e-08
-3.73894e-08
-5.57666e-08
6.3564e-08
7.43886e-08
5.08962e-08
4.4787e-08
1.95335e-08
2.75616e-08
3.12045e-08
1.90685e-08
1.16465e-08
3.09488e-08
1.19259e-07
1.22377e-07
6.76198e-08
6.14264e-08
9.35386e-08
8.69629e-08
1.23356e-07
1.13865e-07
1.64896e-07
1.80292e-07
1.53706e-07
1.45425e-07
1.65937e-07
1.68517e-07
2.91313e-07
2.94868e-07
2.94397e-07
2.90417e-07
2.11377e-07
1.97066e-07
1.94811e-07
9.28222e-08
9.295e-08
1.29152e-07
1.43809e-07
9.55407e-08
1.05356e-07
5.08476e-09
5.06644e-09
5.03203e-09
5.0127e-09
4.49365e-09
4.54506e-09
4.68373e-09
4.73727e-09
5.84802e-09
6.03759e-09
4.78767e-09
5.01279e-09
4.0191e-09
4.17594e-09
3.62612e-09
3.50624e-09
2.92391e-09
2.83493e-09
3.89574e-09
3.94432e-09
2.92302e-09
2.96971e-09
2.40529e-09
2.33361e-09
1.75881e-09
1.70654e-09
2.49833e-09
2.55463e-09
2.03099e-09
1.96617e-09
2.39027e-09
2.47212e-09
2.14822e-09
2.22823e-09
1.37892e-09
1.33301e-09
1.51151e-09
1.55427e-09
1.22317e-09
1.27144e-09
1.29437e-09
1.31876e-09
6.61149e-10
6.73607e-10
4.14731e-10
4.29569e-10
4.04354e-10
3.52778e-10
4.85988e-10
5.07578e-10
1.45085e-09
1.40871e-09
1.98241e-09
2.04018e-09
1.34396e-09
1.33925e-09
1.06485e-09
1.05015e-09
2.66653e-07
2.26054e-07
2.04929e-07
-3.00108e-08
-4.33393e-08
1.7331e-07
6.24838e-08
1.23393e-07
3.30088e-08
2.65837e-09
2.23483e-09
3.42022e-07
3.1041e-07
-5.81691e-08
-5.76166e-08
-4.0605e-08
-3.61973e-08
3.00315e-08
4.77772e-09
-2.36248e-07
-6.43867e-08
-1.13357e-07
-8.38129e-08
1.04068e-09
1.41227e-09
-2.26409e-10
6.6798e-12
-5.01172e-10
-5.06018e-10
-3.2551e-10
-3.41311e-10
-2.72172e-10
-2.5488e-10
-2.96627e-10
-3.14897e-10
-1.06071e-10
3.52103e-11
9.60023e-11
7.885e-11
4.97516e-08
5.37239e-08
6.59407e-09
6.80064e-09
8.39526e-09
9.31197e-09
3.95131e-08
4.24221e-08
8.03034e-09
7.7599e-09
1.57539e-09
7.95526e-10
-1.20658e-08
-1.0179e-08
-1.74593e-08
-1.87294e-08
-2.39419e-08
-1.94925e-08
-2.53421e-08
-9.74339e-08
7.66456e-07
6.70622e-07
1.12615e-06
9.94538e-07
5.79613e-07
5.51772e-07
4.79392e-07
5.35583e-07
3.57202e-07
3.62644e-07
2.63601e-07
2.29294e-07
2.3607e-07
2.78624e-07
-9.97823e-08
-5.876e-08
-5.38052e-08
-4.65685e-08
-3.31502e-08
1.60848e-07
1.37857e-07
3.54851e-08
4.43699e-08
6.96435e-07
4.06821e-07
5.42587e-07
3.98085e-07
8.75367e-07
7.64254e-07
1.34203e-06
1.72332e-06
1.5289e-06
1.27589e-06
1.23909e-06
2.03809e-07
1.87527e-07
1.71148e-07
1.76559e-07
2.57386e-07
2.83331e-07
6.13633e-07
5.12456e-07
4.26244e-07
3.12106e-07
4.0886e-07
2.13837e-07
1.2792e-07
7.76129e-08
1.05638e-07
1.95413e-08
8.03522e-08
-8.71114e-08
9.56803e-08
1.88974e-07
1.67863e-07
1.26933e-07
9.28971e-08
5.22569e-08
4.94348e-08
-4.82371e-08
-4.70559e-08
1.30765e-07
5.85123e-07
4.91236e-07
1.07461e-06
1.08283e-06
1.38275e-06
1.4544e-06
1.22275e-06
1.218e-06
4.01438e-07
4.12324e-07
3.14854e-07
3.09521e-07
4.18622e-07
4.7804e-07
5.39669e-07
5.90717e-07
4.98468e-07
5.15418e-07
6.65001e-07
6.70481e-07
3.6448e-07
3.54138e-07
-2.25839e-08
-1.89822e-08
-4.36925e-08
-3.70667e-08
-4.31709e-08
-3.77791e-08
-9.85305e-08
-1.08056e-07
-3.10949e-08
-2.49616e-08
-6.7995e-08
-6.5549e-08
4.94571e-08
3.95606e-08
5.14994e-08
5.92132e-08
1.63432e-08
3.15548e-08
8.44816e-08
8.50943e-08
7.17858e-08
6.71187e-08
1.04242e-07
1.12651e-07
1.12843e-07
1.00212e-07
1.60615e-07
1.65566e-07
1.39186e-07
1.31898e-07
1.87569e-07
1.86911e-07
2.63411e-07
2.60565e-07
2.30822e-07
2.34795e-07
2.33585e-07
2.17133e-07
9.17986e-08
8.97769e-08
8.44524e-08
8.45083e-08
1.10554e-07
1.16389e-07
5.15538e-09
5.17519e-09
4.42251e-09
4.47357e-09
4.61315e-09
4.67654e-09
4.97762e-09
5.00007e-09
4.31266e-09
4.29701e-09
6.26152e-09
6.28997e-09
5.25933e-09
5.09859e-09
4.44294e-09
4.26496e-09
4.22624e-09
4.09787e-09
4.16621e-09
4.32167e-09
3.20963e-09
3.32486e-09
2.96974e-09
2.90938e-09
4.02771e-09
3.97773e-09
3.13103e-09
3.04253e-09
2.26359e-09
2.18678e-09
2.01744e-09
1.94498e-09
2.22831e-09
2.28425e-09
2.34599e-09
2.41423e-09
2.47447e-09
2.40981e-09
1.96874e-09
1.90232e-09
2.45221e-09
2.53194e-09
2.42135e-09
2.36028e-09
1.50391e-09
1.45411e-09
1.39994e-09
1.35507e-09
1.57625e-09
1.62595e-09
1.56024e-09
1.60511e-09
1.27374e-09
1.32148e-09
1.7168e-09
1.77165e-09
1.54086e-09
1.49267e-09
2.46546e-10
2.5939e-10
4.82566e-10
4.91791e-10
4.46233e-10
4.36507e-10
3.79695e-10
3.68478e-10
4.04203e-10
3.51051e-10
4.15624e-10
4.00431e-10
1.45283e-09
1.41107e-09
1.96578e-09
1.94474e-09
1.62381e-09
1.61337e-09
1.26278e-09
1.26814e-09
1.28461e-09
1.29262e-09
8.52817e-10
8.42752e-10
3.02386e-10
2.83554e-10
1.57225e-07
1.8667e-07
-6.28557e-10
8.48616e-09
1.45646e-07
1.63793e-07
1.471e-08
-2.34988e-08
1.03613e-07
1.52688e-08
1.47641e-07
6.00076e-08
6.39445e-08
9.74462e-07
1.12024e-06
-7.24141e-08
-5.87751e-08
-8.99516e-08
-3.58603e-08
-4.23554e-08
-1.60129e-08
-3.52477e-08
1.81125e-07
-7.38797e-09
1.10776e-07
-1.80022e-08
-2.86255e-08
-7.84677e-08
-7.21609e-08
-2.3712e-08
-1.85769e-08
6.18507e-10
1.66745e-09
-3.67489e-10
-3.79795e-10
-4.14116e-10
-3.85134e-10
4.82143e-10
5.17121e-10
-1.42806e-10
-1.64433e-10
-2.75598e-10
-2.59155e-10
-6.12568e-11
-1.97452e-11
7.75772e-11
9.37159e-11
3.48065e-08
3.73068e-08
4.07236e-08
4.37304e-08
6.92864e-09
6.81082e-09
5.18054e-09
5.00993e-09
4.20183e-09
3.45827e-09
3.40555e-09
3.05943e-09
7.4711e-09
7.10834e-09
4.27393e-09
4.69205e-09
-7.17733e-10
1.994e-10
-1.07419e-08
-8.96303e-09
-1.33292e-08
-1.56106e-08
-2.7804e-08
-3.02278e-08
4.77112e-07
4.43412e-07
5.30846e-07
4.41536e-07
1.014e-06
1.15176e-06
8.23312e-07
9.1667e-07
4.59745e-07
4.33002e-07
3.97357e-07
4.03486e-07
3.17353e-07
3.51291e-07
2.82526e-07
3.16681e-07
-4.45337e-08
-8.21064e-09
3.07655e-08
6.63148e-08
1.11654e-07
1.74282e-07
1.70084e-07
6.93613e-08
7.37701e-08
4.03712e-07
3.54464e-07
1.17279e-06
1.01197e-06
1.47993e-06
1.69458e-06
1.42976e-07
1.47186e-07
1.93609e-07
1.87443e-07
1.05926e-06
1.16829e-06
5.54795e-07
6.25143e-07
8.3117e-07
6.95141e-07
9.10491e-08
9.46886e-08
6.26235e-09
1.72616e-07
1.24764e-07
2.74748e-07
2.15484e-07
1.03886e-07
2.96207e-08
1.36781e-07
1.3583e-07
-3.43941e-08
-5.98572e-08
-8.10735e-08
-9.05504e-08
1.75502e-07
2.0678e-07
1.02798e-07
7.66306e-08
9.74403e-08
1.86161e-08
-4.00211e-08
3.02433e-09
-2.15881e-08
-1.69326e-08
1.2253e-06
8.7125e-07
9.63284e-07
7.9389e-07
1.20731e-06
1.219e-06
1.86046e-06
2.1341e-06
1.81826e-06
9.6293e-07
9.64699e-07
1.20289e-06
1.17224e-06
4.52376e-07
4.64088e-07
3.00358e-07
3.33136e-07
3.41384e-07
3.77155e-07
5.22383e-07
4.62616e-07
5.78442e-07
5.5826e-07
-1.66025e-08
-1.34525e-08
-2.466e-08
-2.84203e-08
-3.14708e-08
-2.66929e-08
-6.90965e-08
-6.18855e-08
-8.75533e-08
-1.17872e-07
-9.62767e-08
-1.03491e-07
-9.93206e-08
-6.333e-08
-7.81373e-08
-4.90718e-08
4.64801e-08
3.75525e-08
9.1202e-08
9.25391e-08
7.32095e-08
7.82343e-08
7.35561e-08
6.65746e-08
1.24914e-07
1.35631e-07
1.03298e-07
9.2118e-08
1.78026e-07
1.83825e-07
1.88602e-07
1.87461e-07
2.35541e-07
2.33237e-07
2.5807e-07
2.3992e-07
1.01025e-07
9.87825e-08
6.11785e-09
5.9292e-09
4.51187e-09
4.45649e-09
3.95696e-09
3.87686e-09
4.48324e-09
4.41701e-09
4.74089e-09
4.69021e-09
4.95955e-09
4.91417e-09
3.50263e-09
3.54452e-09
4.76121e-09
4.62003e-09
5.68547e-09
5.68656e-09
5.10303e-09
5.25001e-09
4.91557e-09
5.14455e-09
4.22335e-09
4.3806e-09
4.39721e-09
4.58211e-09
4.34097e-09
4.22573e-09
4.38231e-09
4.01733e-09
3.6477e-09
3.51991e-09
3.04903e-09
2.94141e-09
2.2724e-09
2.21302e-09
2.92705e-09
3.00226e-09
3.64256e-09
3.67709e-09
3.62593e-09
3.57777e-09
3.58322e-09
3.54076e-09
3.31289e-09
3.40606e-09
2.48424e-09
2.54758e-09
2.09894e-09
2.02557e-09
1.78503e-09
1.71537e-09
2.0439e-09
1.98902e-09
2.38149e-09
2.17992e-09
2.634e-09
2.58239e-09
2.2285e-09
2.15089e-09
2.27772e-09
2.19642e-09
1.70831e-09
1.64248e-09
1.41105e-09
1.46227e-09
1.57352e-09
1.52819e-09
1.46326e-09
1.51106e-09
1.30783e-09
1.26454e-09
1.1387e-09
1.17979e-09
1.73453e-09
1.69028e-09
1.72813e-09
1.77829e-09
1.40269e-09
1.44363e-09
1.59793e-09
6.53484e-10
6.33645e-10
5.59033e-10
5.84359e-10
6.22957e-10
6.46597e-10
4.34622e-10
4.87722e-10
4.317e-10
4.47108e-10
4.07952e-10
4.18798e-10
3.7208e-10
3.84883e-10
3.69608e-10
3.67696e-10
4.11771e-10
4.31141e-10
4.05206e-10
3.48044e-10
2.84907e-09
2.92144e-09
1.7126e-09
1.71305e-09
1.45925e-09
1.46033e-09
1.4665e-09
1.42628e-09
1.21099e-09
1.21852e-09
1.30063e-09
1.30599e-09
9.56656e-10
9.51467e-10
6.27064e-10
6.29903e-10
2.70572e-10
3.69231e-10
-7.03488e-08
-8.28451e-08
2.47008e-08
3.33055e-08
-3.99433e-08
3.83303e-08
3.71857e-08
2.10934e-08
-1.45778e-08
7.64418e-08
-2.53275e-08
2.78336e-07
-3.71787e-09
-2.92248e-09
1.3076e-07
1.2291e-07
8.51899e-07
8.66911e-07
2.72957e-07
3.10231e-07
-6.54343e-08
-6.45067e-08
4.29167e-08
5.27187e-08
-2.13818e-08
-5.74839e-09
1.16868e-08
6.85031e-08
1.30436e-07
3.02375e-08
-2.80754e-08
-6.11313e-08
-7.92441e-08
-2.00291e-08
-4.53927e-08
-9.7899e-08
-1.03113e-08
-1.01085e-08
-1.37444e-09
-9.66826e-10
1.16947e-09
2.10169e-10
-7.69175e-10
-7.64809e-10
-4.32195e-10
-4.33593e-10
-4.38871e-10
-4.07419e-10
4.85749e-10
5.01672e-10
-1.02718e-10
-7.62481e-11
-1.69076e-10
-1.50462e-10
-3.10803e-10
-3.28037e-10
-2.7693e-10
-2.91485e-10
-1.06969e-10
-1.22261e-10
3.83616e-11
7.7745e-11
9.40736e-11
7.99073e-11
2.39603e-10
2.46021e-10
5.2622e-08
5.67471e-08
4.66948e-08
5.02114e-08
9.37137e-09
9.16145e-09
1.07364e-08
1.03693e-08
7.03774e-09
1.98444e-09
3.92173e-09
2.46027e-09
2.82995e-09
3.06212e-08
2.87774e-08
2.05602e-09
2.78528e-09
5.23385e-09
5.55954e-09
6.16214e-10
1.40127e-09
-3.32242e-09
-4.60422e-09
-1.5383e-08
-1.30004e-08
-1.32013e-08
-1.1241e-08
-1.94854e-08
-1.74581e-08
-1.07239e-07
-1.19764e-07
5.09763e-07
4.92829e-07
4.91856e-07
4.03019e-07
9.01686e-07
8.9776e-07
1.01224e-06
1.12758e-06
4.11886e-07
3.87371e-07
5.49534e-07
5.56915e-07
2.95377e-07
2.92179e-07
-1.11129e-07
-1.25999e-07
-4.15885e-08
1.5118e-07
1.46631e-06
1.55121e-06
1.61095e-07
1.56364e-07
1.2741e-06
5.63662e-07
5.10606e-07
7.79267e-07
5.74872e-07
3.6303e-08
6.0453e-08
1.37299e-07
3.17842e-07
2.47783e-07
2.13748e-07
6.69959e-08
1.40618e-08
-6.54037e-09
-9.78949e-08
-1.09413e-07
-1.24314e-07
1.81174e-07
2.30059e-07
7.59258e-08
7.33486e-08
2.09785e-08
4.75151e-08
-2.17355e-08
5.75674e-07
4.66195e-07
4.08001e-07
7.46726e-07
7.59467e-07
8.07145e-07
8.56404e-07
9.94347e-07
8.64733e-07
1.5286e-06
1.53173e-06
1.89166e-06
1.85246e-06
8.52882e-07
8.50462e-07
1.04204e-06
1.06942e-06
4.07554e-07
4.3335e-07
3.5458e-07
3.6577e-07
4.31133e-07
3.85902e-07
-1.50206e-08
-1.10816e-08
-3.20168e-09
-1.18269e-09
-1.08409e-08
-1.58572e-08
-2.0453e-08
-4.38113e-08
-5.06281e-08
-6.42005e-08
-6.88932e-08
-1.20038e-07
-1.16428e-07
-8.81665e-08
-3.06596e-08
-4.14495e-08
-6.51516e-08
1.20088e-07
1.26409e-07
9.90518e-08
1.01198e-07
6.21755e-08
5.66817e-08
1.3696e-07
1.49084e-07
1.6955e-07
1.68633e-07
2.19708e-07
2.27644e-07
5.06163e-09
5.06367e-09
1.02943e-08
9.93858e-09
3.99372e-09
4.09003e-09
7.67214e-09
7.86163e-09
5.44736e-09
5.34906e-09
4.32203e-09
4.27833e-09
4.65621e-09
4.60337e-09
4.6246e-09
4.56147e-09
4.6343e-09
4.91605e-09
4.92386e-09
3.74251e-09
3.70316e-09
3.68273e-09
3.58807e-09
4.82414e-09
4.89883e-09
5.75414e-09
5.93244e-09
5.99403e-09
6.01218e-09
5.70181e-09
5.80229e-09
5.52532e-09
5.80987e-09
5.39772e-09
4.44904e-09
4.5487e-09
4.51706e-09
4.70611e-09
4.26759e-09
4.41944e-09
3.87e-09
3.94034e-09
2.96252e-09
3.06752e-09
3.03219e-09
3.14442e-09
2.5253e-09
2.46403e-09
2.96749e-09
2.89409e-09
3.45813e-09
3.37713e-09
3.60742e-09
4.27301e-09
4.2213e-09
2.95768e-09
2.87581e-09
2.93467e-09
2.98958e-09
3.27245e-09
3.31819e-09
2.34941e-09
2.27297e-09
2.6121e-09
2.54397e-09
2.09254e-09
2.17472e-09
1.86143e-09
1.79104e-09
1.85711e-09
2.03934e-09
2.09792e-09
2.29856e-09
2.22974e-09
2.5006e-09
2.42174e-09
2.09571e-09
2.15732e-09
2.30952e-09
2.37101e-09
1.987e-09
2.06431e-09
1.57343e-09
1.51708e-09
1.56378e-09
1.42637e-09
1.38248e-09
1.67277e-09
1.72517e-09
1.56424e-09
1.32014e-09
1.36079e-09
1.23377e-09
1.27609e-09
1.2251e-09
2.39784e-09
2.36232e-09
1.77694e-09
1.82877e-09
1.6043e-09
1.66381e-09
1.49519e-09
1.54606e-09
1.06892e-09
1.04022e-09
7.0577e-10
7.19953e-10
6.26149e-10
4.67483e-10
4.30293e-10
6.36424e-10
6.62086e-10
4.8738e-10
4.77484e-10
4.62599e-10
4.77997e-10
4.67323e-10
4.57042e-10
4.15634e-10
4.26235e-10
3.7631e-10
3.90198e-10
3.65196e-10
3.634e-10
4.61936e-10
4.45611e-10
4.0584e-10
4.23527e-10
4.05902e-10
3.848e-10
2.51837e-09
2.45187e-09
2.05099e-09
1.99647e-09
1.65438e-09
1.65911e-09
1.79286e-09
1.79977e-09
1.92475e-09
1.96781e-09
1.57023e-09
1.58176e-09
1.43002e-09
1.41901e-09
1.28102e-09
1.32232e-09
1.22539e-09
1.23047e-09
1.09893e-09
1.08324e-09
9.45985e-10
9.36298e-10
3.43478e-10
3.42745e-10
2.60257e-10
4.51257e-10
3.61437e-10
2.45249e-09
2.48841e-09
6.24839e-07
5.51151e-07
4.17017e-08
1.53214e-07
1.03292e-07
4.40643e-08
2.01508e-09
1.00663e-07
1.39287e-07
2.60996e-08
-2.70394e-08
-1.87763e-07
2.30024e-09
1.92442e-09
7.23322e-08
6.77696e-08
3.19768e-07
2.82202e-07
7.12711e-07
7.18928e-07
9.71703e-07
1.07541e-06
6.70981e-07
7.15627e-07
1.95894e-07
1.19346e-07
-7.82333e-09
9.3878e-09
4.26313e-08
6.1916e-08
-5.14568e-08
-4.35402e-08
-3.5208e-08
1.41634e-07
6.17592e-08
2.1512e-08
1.68299e-07
2.1082e-07
1.5737e-08
-1.51144e-08
-3.48853e-08
3.9737e-07
3.45465e-07
3.26708e-07
-2.54577e-08
-2.46428e-08
-2.39513e-08
4.94722e-09
3.30308e-09
1.18224e-10
7.94564e-11
-1.53369e-09
-1.52189e-09
-5.29085e-10
-5.45272e-10
-2.31716e-10
-2.35751e-10
-4.16845e-10
-4.19842e-10
-4.62899e-10
-4.29517e-10
-3.3649e-10
-3.35758e-10
4.68022e-10
4.52982e-10
-2.96997e-10
-3.1623e-10
-1.68305e-10
-1.4919e-10
-1.92302e-10
-1.75922e-10
-3.06795e-10
-3.25957e-10
-2.26308e-10
-2.10043e-10
-2.58263e-10
-2.76315e-10
-1.52148e-10
-1.70368e-10
1.46659e-11
2.49363e-11
9.90349e-11
1.29227e-10
4.48477e-11
3.59482e-11
2.9311e-11
6.30696e-11
4.94842e-11
7.13273e-11
3.46652e-10
3.12447e-10
4.56283e-08
4.90424e-08
4.05225e-08
3.78812e-08
9.66531e-09
9.92093e-09
1.01438e-08
1.04859e-08
7.24075e-09
7.96212e-09
6.38757e-09
5.96692e-09
3.33108e-09
3.82507e-09
2.33873e-08
2.20648e-08
-6.50924e-09
-9.87569e-09
6.49484e-09
6.69075e-09
3.74206e-09
3.17415e-09
-1.6401e-10
7.02187e-10
-6.03223e-09
-7.58165e-09
-2.22672e-08
-2.54056e-08
-9.29777e-09
-7.60361e-09
-1.74287e-08
-1.53673e-08
-1.50466e-08
-1.28365e-08
1.88262e-08
1.83875e-08
6.04532e-07
6.89574e-07
7.1884e-07
4.32087e-07
3.89756e-07
8.07239e-07
7.96637e-07
4.30205e-07
-8.15837e-08
2.19377e-08
1.99459e-08
1.06709e-06
9.85193e-07
1.24294e-06
5.06845e-07
4.64998e-07
1.89239e-07
1.54864e-07
2.97169e-07
2.64448e-07
2.83676e-07
1.52935e-07
-1.89416e-08
-1.14044e-07
-1.26014e-07
-4.14945e-08
-6.70231e-08
-1.62649e-07
1.53371e-07
1.86872e-07
1.05399e-08
2.62834e-09
4.05117e-07
2.75815e-07
4.59218e-07
5.37761e-07
4.21549e-07
9.50512e-07
1.1546e-06
8.9829e-07
9.29194e-07
8.81928e-07
7.73549e-07
1.36571e-06
1.37126e-06
1.66193e-06
1.70973e-06
8.2289e-07
8.43326e-07
1.08397e-06
1.08777e-06
3.82948e-07
3.57891e-07
-2.01032e-08
-2.43324e-08
3.30168e-10
-5.42614e-09
-2.40071e-08
-2.80239e-08
-5.18053e-08
-5.83272e-08
-1.05131e-07
-9.83036e-08
-1.94455e-08
1.14835e-07
1.09172e-07
1.31448e-07
1.35061e-07
7.98679e-08
8.55915e-08
2.08332e-07
2.02137e-07
-3.84448e-09
-5.09786e-09
2.69358e-08
2.65053e-08
1.01769e-08
9.9461e-09
3.84237e-09
3.80496e-09
4.27992e-09
4.27287e-09
7.71097e-09
7.91418e-09
4.91643e-09
4.86347e-09
5.59198e-09
5.68937e-09
5.15597e-09
5.18704e-09
4.27548e-09
4.32626e-09
4.44296e-09
4.3725e-09
4.58569e-09
4.54549e-09
4.57472e-09
4.51024e-09
4.88077e-09
4.87797e-09
3.84499e-09
3.80893e-09
3.64165e-09
3.60009e-09
4.44555e-09
4.52408e-09
5.57277e-09
5.71546e-09
5.66414e-09
5.82561e-09
6.00333e-09
6.21231e-09
5.01502e-09
4.91857e-09
6.33806e-09
6.3997e-09
5.5141e-09
5.62127e-09
5.63292e-09
5.35784e-09
4.28356e-09
4.12603e-09
4.07543e-09
4.12455e-09
3.83295e-09
3.97645e-09
2.98801e-09
2.88397e-09
3.12435e-09
3.23803e-09
2.23294e-09
2.1723e-09
2.43981e-09
2.37883e-09
2.92904e-09
2.8567e-09
3.55097e-09
3.58492e-09
3.91459e-09
3.9553e-09
4.13995e-09
4.19142e-09
3.59713e-09
3.51581e-09
3.50145e-09
3.54357e-09
3.07921e-09
3.02355e-09
3.49608e-09
3.4521e-09
3.07377e-09
3.00833e-09
2.40112e-09
2.46761e-09
2.37357e-09
2.44076e-09
2.16618e-09
2.23818e-09
2.25717e-09
2.18057e-09
1.92818e-09
1.99936e-09
1.93821e-09
1.86631e-09
1.91231e-09
1.96515e-09
2.04812e-09
1.99074e-09
2.27516e-09
2.17651e-09
2.80307e-09
2.75949e-09
2.11777e-09
2.04168e-09
2.08586e-09
2.02503e-09
1.84387e-09
1.9108e-09
2.05592e-09
2.13359e-09
1.63729e-09
1.57684e-09
1.33193e-09
1.28788e-09
1.7312e-09
1.78591e-09
1.36708e-09
1.41506e-09
1.36963e-09
1.4065e-09
1.32106e-09
1.27638e-09
1.71041e-09
1.66607e-09
1.54612e-09
1.50677e-09
1.67906e-09
1.72745e-09
1.43418e-09
1.60597e-09
1.49191e-09
1.44762e-09
6.24261e-10
6.05101e-10
3.86093e-10
3.73866e-10
3.24298e-10
3.29989e-10
6.41873e-10
6.70513e-10
6.3333e-10
6.45208e-10
5.8974e-10
6.11162e-10
5.39549e-10
5.5513e-10
4.91671e-10
5.03405e-10
4.75868e-10
4.9265e-10
4.38748e-10
4.23253e-10
4.04429e-10
3.56327e-10
3.7994e-10
3.95297e-10
4.69059e-10
4.88931e-10
4.1705e-10
4.37494e-10
4.06084e-10
3.45482e-10
4.07229e-10
3.44484e-10
2.68701e-09
2.6916e-09
2.46335e-09
2.52879e-09
2.01864e-09
2.07372e-09
1.66429e-09
1.6664e-09
1.93142e-09
1.9215e-09
1.94787e-09
1.98507e-09
1.52631e-09
1.53506e-09
1.5414e-09
1.58281e-09
1.35062e-09
1.39023e-09
1.40335e-09
1.38677e-09
1.25522e-09
1.24697e-09
1.08445e-09
1.04067e-09
8.98132e-10
9.06925e-10
6.39309e-10
6.64929e-10
7.31866e-10
7.25874e-10
4.35956e-10
4.39797e-10
3.66737e-10
2.57364e-09
-3.03673e-11
-1.24698e-07
-1.30569e-07
5.11698e-07
4.47602e-07
-6.69104e-08
-9.60376e-08
1.60321e-07
1.07128e-07
2.15589e-08
8.32735e-08
1.74272e-07
2.08002e-07
2.17559e-07
2.16221e-07
5.21463e-08
1.02174e-07
2.19511e-07
2.76676e-07
-4.88207e-08
-4.44344e-08
1.72009e-08
2.03136e-08
4.64865e-08
6.56747e-08
1.2555e-07
1.1124e-07
3.04226e-07
3.437e-07
6.38254e-07
6.39353e-07
6.5372e-07
6.82493e-07
9.8589e-07
1.08823e-06
6.3914e-07
6.01774e-07
1.0743e-06
1.01605e-06
2.21805e-07
1.56989e-07
2.98022e-08
7.49022e-09
-3.63764e-09
5.22841e-08
-2.82119e-08
-1.05854e-08
2.65902e-08
7.20034e-08
9.43251e-08
1.36697e-07
1.81285e-07
1.536e-07
2.2578e-08
-1.81724e-08
-8.5383e-08