/*--------------------------------*- C++ -*----------------------------------*\
  =========                 |
  \\      /  F ield         | OpenFOAM: The Open Source CFD Toolbox
   \\    /   O peration     | Website:  https://openfoam.org
    \\  /    A nd           | Version:  7
     \\/     M anipulation  |
\*---------------------------------------------------------------------------*/
FoamFile
{
    version     2.0;
    format      ascii;
    class       volScalarField;
    location    "0.11";
    object      p;
}
// * * * * * * * * * * * * * * * * * * * * * * * * * * * * * * * * * * * * * //

dimensions      [0 2 -2 0 0 0 0];

internalField   nonuniform List<scalar> 
238806
(
6.58779e-07
6.549e-07
-7.05211e-08
8.81619e-08
4.03743e-10
5.91389e-07
5.99588e-07
6.85229e-07
7.58276e-07
1.38882e-07
1.61012e-07
2.26096e-07
6.69334e-08
6.28289e-08
-1.03514e-07
-1.18556e-07
1.12812e-07
7.23076e-08
2.11945e-06
2.13647e-06
8.5347e-08
7.54471e-08
-1.02159e-07
-6.9912e-08
-4.12411e-08
7.4335e-08
1.69095e-08
6.88669e-08
-2.31534e-08
-1.13096e-07
1.88822e-06
2.0972e-06
4.27454e-08
6.43154e-08
1.27245e-07
1.41963e-07
3.24654e-10
2.885e-10
1.15673e-07
2.43274e-07
1.8757e-07
-3.2589e-08
2.34605e-06
2.57998e-06
1.90801e-06
1.88892e-06
-5.28373e-08
-3.75375e-08
8.61872e-08
1.07632e-07
2.60875e-07
2.7143e-07
7.41127e-08
6.94384e-08
-1.37942e-10
-1.4031e-10
1.49375e-07
4.28384e-08
1.3598e-07
2.12471e-07
1.55441e-07
3.0929e-07
1.85246e-07
2.52361e-07
2.93647e-07
1.70121e-06
1.70273e-06
8.63925e-07
7.74584e-07
4.3107e-07
3.83033e-07
5.82814e-08
3.938e-08
1.04641e-07
8.32304e-08
1.96348e-07
1.82061e-07
1.26866e-07
1.41382e-07
8.47038e-10
8.49603e-10
5.95135e-08
8.81038e-08
1.02488e-06
1.08193e-06
3.74918e-07
3.35108e-07
2.25788e-08
-5.61287e-08
6.10372e-08
2.3717e-08
3.10034e-07
1.97406e-07
1.95037e-06
1.89831e-06
2.48085e-07
2.75671e-07
1.42057e-07
1.06619e-07
-1.98715e-08
1.67969e-06
8.73212e-07
8.23416e-07
7.37349e-07
7.40161e-07
3.02859e-08
2.38588e-08
9.01667e-08
7.30445e-08
6.17205e-08
4.06635e-08
1.88558e-07
2.10842e-07
2.42036e-07
2.32051e-07
7.03506e-08
7.7899e-08
2.69689e-10
2.8259e-10
1.72768e-10
-1.33999e-07
-1.28268e-07
8.46319e-07
7.98149e-07
6.60228e-07
6.68793e-07
-1.28851e-07
-1.50164e-07
-4.73442e-09
-2.02376e-09
2.53246e-07
-1.13267e-08
4.16814e-08
-4.56612e-08
1.13003e-07
2.59937e-07
1.79239e-06
2.01154e-06
-2.48531e-07
-7.83092e-08
-1.30306e-07
-8.03895e-08
1.80548e-07
1.24046e-06
9.94707e-07
1.11085e-06
1.05051e-06
7.33644e-07
7.76186e-07
5.15196e-07
4.80173e-07
3.24895e-07
3.04477e-07
2.00664e-08
1.13274e-08
7.06025e-08
5.85803e-08
5.58222e-08
3.88409e-08
7.75981e-08
6.89078e-08
1.76732e-07
1.65229e-07
2.70655e-07
2.60079e-07
1.23088e-07
1.37556e-07
1.10292e-09
1.09671e-09
3.22002e-10
2.87118e-10
5.42574e-08
7.88806e-08
-5.23432e-08
-4.0895e-08
-2.244e-08
9.53315e-07
8.99237e-07
2.92824e-07
2.79681e-07
-1.1483e-07
-1.40642e-07
-7.20939e-08
6.5426e-08
-1.75904e-08
3.57233e-08
9.97758e-07
9.13236e-07
2.17349e-06
2.43358e-06
2.32746e-06
2.56675e-06
9.77137e-07
8.1451e-07
1.38586e-07
-1.82537e-09
1.45196e-07
-4.74555e-08
-6.46498e-08
1.12463e-10
-7.10445e-08
2.03199e-06
2.0835e-06
1.10697e-06
1.04693e-06
9.75225e-07
8.64407e-07
3.27297e-07
2.92035e-07
4.27113e-07
4.59477e-07
-6.11478e-08
-6.77937e-08
3.46493e-09
-4.02656e-09
8.9133e-09
2.21859e-08
1.28741e-08
2.71806e-08
7.76384e-08
9.69873e-08
1.87966e-07
1.70624e-07
2.07504e-07
2.44225e-07
2.3437e-07
2.42252e-07
1.26009e-07
1.40678e-07
2.68039e-09
2.90116e-09
6.51163e-10
6.69628e-10
2.1109e-10
1.88908e-10
3.19411e-10
3.15047e-10
3.50289e-07
4.0224e-07
3.4721e-08
1.01305e-07
-1.31359e-07
-1.41712e-07
-5.72908e-09
-4.99605e-09
7.4735e-07
7.0387e-07
3.48145e-07
3.65039e-07
2.8961e-07
2.63684e-07
1.37212e-07
1.48971e-07
1.59578e-09
4.9281e-09
4.80406e-08
1.08986e-07
1.86027e-06
2.20226e-06
2.07998e-06
2.35589e-06
1.88408e-06
2.10054e-06
1.80192e-07
1.82154e-07
8.13234e-07
9.05957e-07
1.85682e-07
2.12401e-07
-1.6812e-08
-3.31692e-08
2.39096e-07
-5.83601e-08
-3.07919e-09
1.75268e-07
1.23102e-07
1.84858e-06
1.78654e-06
1.4067e-06
1.32982e-06
9.31789e-07
9.8572e-07
5.7259e-07
6.12179e-07
5.76221e-07
5.8045e-07
4.4468e-07
4.29981e-07
-1.63034e-08
-1.3273e-08
-4.60517e-08
-5.56503e-08
4.31646e-09
-2.51786e-09
-1.42857e-10
-1.01265e-08
2.20558e-08
5.31445e-09
2.09028e-08
1.42598e-10
5.23268e-08
3.70316e-08
6.72579e-08
6.83391e-08
1.36255e-07
1.17508e-07
1.93026e-07
1.86187e-07
2.18302e-07
1.99446e-07
7.29983e-08
7.48529e-08
1.10378e-07
1.13084e-07
1.03547e-07
9.34872e-08
7.52195e-10
7.19912e-10
1.84787e-09
1.97797e-09
8.1179e-10
7.64325e-10
8.10229e-10
8.09837e-10
1.24945e-10
1.14341e-10
3.20576e-10
3.24981e-10
2.78559e-10
4.98805e-08
7.56048e-08
-1.09054e-07
-1.05393e-07
-1.8861e-10
-1.89427e-10
3.17416e-08
3.44524e-08
-3.64819e-08
-2.83262e-08
7.00151e-07
6.55475e-07
7.33192e-07
7.29428e-07
3.1079e-07
3.26155e-07
2.52733e-07
2.41118e-07
-2.31279e-07
-6.88681e-08
-1.16827e-07
-6.29436e-08
4.30614e-07
5.66442e-07
1.31542e-06
1.98993e-06
1.45547e-06
1.21168e-06
1.14946e-06
2.12307e-06
1.91021e-06
2.2085e-07
2.23515e-07
4.20117e-07
5.27797e-07
5.9773e-07
8.2384e-07
-2.23072e-07
-3.78945e-08
-8.46785e-08
3.00813e-07
3.03312e-07
2.02898e-08
8.18586e-08
1.98346e-07
-2.39267e-08
2.27935e-07
5.91149e-08
7.57185e-07
6.67633e-07
1.82373e-06
1.95122e-06
1.35681e-06
1.34727e-06
1.39384e-06
1.24247e-06
1.2266e-06
1.06383e-06
1.89814e-07
1.81948e-07
2.56306e-07
2.87646e-07
6.532e-07
6.43303e-07
7.15734e-07
6.87761e-07
4.55205e-07
4.53189e-07
4.08644e-07
3.81227e-07
2.80055e-07
2.52384e-07
-6.33368e-08
-5.66391e-08
3.95595e-08
4.63888e-08
4.6422e-09
-1.51577e-09
1.8174e-09
-7.45014e-09
-7.74034e-09
-2.12252e-08
-2.1846e-08
-3.94154e-08
4.94532e-08
3.57382e-08
7.44021e-08
7.83828e-08
1.24217e-07
1.07866e-07
2.07786e-07
2.16099e-07
1.35322e-07
1.37164e-07
1.0274e-07
1.14079e-07
9.92306e-08
1.01689e-07
1.14698e-07
7.85948e-10
7.56583e-10
2.72337e-09
2.94782e-09
1.49363e-09
1.3983e-09
1.38046e-09
1.46938e-09
6.60309e-10
6.3673e-10
3.96138e-10
4.31621e-10
1.39859e-10
1.24767e-10
2.50459e-10
2.45009e-10
6.49956e-10
6.6815e-10
3.53396e-08
1.79487e-07
3.78309e-08
-3.022e-08
-2.42735e-08
-2.09752e-07
-1.26933e-07
-1.56832e-07
-1.29656e-07
-1.31091e-10
-1.36503e-10
8.97959e-10
1.10046e-09
-3.74549e-08
-3.45877e-08
-3.33748e-08
-3.54312e-08
-1.22567e-07
-1.40504e-07
6.95638e-07
8.45931e-07
6.35067e-07
6.20961e-07
4.213e-07
4.28873e-07
3.25477e-07
1.64138e-07
1.32945e-07
1.97906e-07
-6.58295e-09
-1.16434e-07
-2.5051e-08
-7.70668e-08
1.20023e-06
2.11346e-06
1.74395e-06
1.72857e-06
1.64822e-06
1.6336e-06
1.5912e-06
2.29167e-06
2.53502e-06
1.47666e-07
1.49158e-07
2.15037e-07
1.9449e-07
2.71611e-07
2.44876e-07
8.50598e-07
7.50501e-07
1.54575e-07
1.76169e-07
8.87815e-08
1.94117e-08
2.91577e-08
-5.50278e-08
-2.38045e-07
-8.6743e-08
-1.37813e-07
-8.29557e-08
-1.57379e-08
9.25936e-08
5.4367e-07
5.86815e-07
1.19554e-06
1.15346e-06
1.63669e-06
1.57111e-06
1.32263e-06
1.48617e-06
1.77472e-06
1.69102e-06
1.18194e-06
1.24929e-06
2.14835e-07
2.13325e-07
3.63489e-07
3.23208e-07
4.78004e-07
5.43863e-07
5.11078e-07
5.13959e-07
6.47769e-07
5.86235e-07
3.56813e-07
3.57533e-07
3.82981e-07
3.9536e-07
2.73985e-07
2.91373e-07
-3.98687e-08
-4.43533e-08
-1.20524e-07
-9.79958e-08
5.0191e-08
5.97168e-08
2.54651e-08
3.25975e-08
1.12714e-08
1.83719e-08
1.12413e-08
2.09176e-08
2.8522e-09
-5.39138e-09
-3.99039e-09
-1.64244e-08
-1.63018e-08
-3.19536e-08
6.32556e-08
7.67337e-08
4.63251e-08
3.41356e-08
9.88413e-08
1.01468e-07
8.56859e-08
9.30386e-08
1.12887e-07
9.8525e-08
1.42866e-07
1.66063e-07
1.38952e-07
1.34812e-07
2.46789e-07
2.50557e-07
1.62162e-07
1.70256e-07
1.33993e-07
1.26212e-07
1.143e-07
1.02848e-07
8.46447e-08
7.64927e-08
1.22327e-09
1.21293e-09
7.10963e-10
7.44761e-10
1.87504e-09
2.00035e-09
1.04334e-09
1.0399e-09
7.85728e-10
8.34173e-10
8.46694e-10
8.32136e-10
4.6188e-10
4.17957e-10
2.16057e-10
2.34933e-10
1.37499e-10
1.5232e-10
1.92797e-10
1.97703e-10
3.31816e-10
2.93429e-10
4.58586e-10
4.01047e-10
3.38267e-10
3.34219e-10
-6.40978e-08
-2.84115e-08
3.60835e-07
2.08874e-07
-4.87724e-08
-4.59708e-08
2.86787e-08
6.14898e-09
-2.48416e-08
-5.30014e-10
-1.09871e-07
-1.00091e-07
-1.1595e-10
-1.18515e-10
-2.40685e-11
5.51542e-12
-3.08954e-09
-3.51662e-09
-6.41633e-09
-5.63554e-09
-1.73525e-08
-1.93019e-08
-3.45378e-08
-4.32729e-08
-2.15828e-08
-4.11776e-08
5.74355e-07
4.64086e-07
8.25387e-07
9.49832e-07
9.85624e-07
1.08365e-06
5.76824e-07
6.46397e-07
4.70996e-07
4.81156e-07
3.01003e-07
3.31396e-07
2.32654e-07
2.31633e-07
-1.03335e-07
-1.29748e-07
9.3807e-08
8.57917e-08
3.29342e-08
7.90175e-09
-2.33189e-08
2.47293e-07
1.5723e-07
1.16276e-06
1.08812e-06
1.89104e-06
1.49572e-06
1.46446e-06
1.41252e-06
2.2386e-06
2.48502e-06
1.33897e-07
1.352e-07
2.5282e-07
2.28887e-07
1.99463e-07
2.01696e-07
6.56915e-07
7.26075e-07
9.47169e-07
1.08703e-06
-1.53914e-08
3.01353e-08
-1.38388e-07
7.9901e-09
9.71392e-08
9.3967e-08
2.06234e-07
-2.22935e-08
3.06361e-07
2.88611e-07
2.42819e-07
6.28751e-08
6.99454e-09
-9.46035e-08
9.85221e-09
6.71823e-07
6.13827e-07
1.69465e-06
1.55294e-06
1.51289e-06
1.52112e-06
1.58097e-06
1.40606e-06
2.58463e-07
1.75052e-07
2.54952e-07
2.62258e-07
2.24623e-07
4.7308e-07
5.29362e-07
5.64385e-07
4.97692e-07
6.23576e-07
7.28162e-07
6.12547e-07
6.35914e-07
4.88391e-07
5.22728e-07
3.04042e-07
3.1256e-07
4.0225e-07
4.03537e-07
3.49669e-07
3.12921e-07
-2.08011e-08
-2.45813e-08
-4.51701e-08
-4.00202e-08
-8.41494e-08
-9.39102e-08
-5.82566e-08
-6.62606e-08
3.21903e-08
4.32405e-08
4.63953e-08
5.48838e-08
2.70799e-08
3.503e-08
1.74116e-08
1.09607e-08
1.03434e-08
2.11791e-08
-1.58328e-09
-1.27562e-08
-1.08274e-08
-2.58224e-08
6.78598e-08
8.31403e-08
8.18094e-08
8.62321e-08
7.06964e-08
6.2986e-08
1.531e-07
1.39599e-07
1.50637e-07
1.29074e-07
1.5915e-07
1.49474e-07
1.98763e-07
1.97392e-07
2.23408e-07
1.66624e-07
1.62675e-07
1.50745e-07
1.74927e-07
9.27632e-08
9.27838e-08
1.11844e-07
1.24404e-07
8.17846e-08
9.07035e-08
2.08478e-08
2.22387e-08
1.22049e-09
1.2192e-09
7.82907e-10
7.96192e-10
1.13062e-09
1.14992e-09
2.10932e-09
1.96049e-09
1.44285e-09
1.54208e-09
1.38519e-09
1.47716e-09
6.69205e-10
6.24566e-10
6.22363e-10
6.2785e-10
4.98629e-10
4.81975e-10
4.84924e-10
5.12247e-10
4.41319e-10
4.73136e-10
2.47601e-10
2.61662e-10
1.76938e-10
1.59741e-10
1.87854e-10
1.89697e-10
2.39728e-10
2.39188e-10
2.07298e-10
2.12413e-10
3.28741e-10
2.91069e-10
3.34467e-10
2.96753e-10
4.936e-10
4.64118e-10
2.79961e-10
1.36621e-10
2.44412e-10
-1.49149e-08
-1.88538e-08
3.98665e-07
2.42209e-07
4.3103e-07
4.36566e-07
3.85927e-07
4.47833e-07
6.5889e-07
-5.47013e-08
-4.84634e-08
2.24619e-08
4.02175e-08
9.56112e-09
2.85957e-08
-6.50372e-08
-9.45975e-08
-2.67986e-08
-4.10635e-08
7.12714e-09
5.80271e-09
-5.64944e-11
-5.22062e-11
-1.22774e-10
-1.25629e-10
-1.46887e-10
-1.4971e-10
-7.71443e-11
5.33737e-12
8.25015e-09
8.88357e-09
4.09757e-10
6.87537e-10
-3.95269e-09
-3.41011e-09
-4.9086e-09
-4.25085e-09
-2.27037e-08
-2.05139e-08
-3.85812e-08
-1.98038e-08
-4.32776e-08
-4.08756e-08
-3.50472e-08
2.98591e-07
3.53402e-07
7.07791e-07
4.99156e-07
8.1508e-07
9.68883e-07
7.33515e-07
6.46581e-07
6.81707e-07
7.15915e-07
4.64041e-07
4.9238e-07
3.06741e-07
3.01961e-07
3.76338e-07
4.22618e-07
1.82677e-07
1.88912e-07
-7.1877e-08
-7.91243e-08
1.19342e-07
1.14081e-07
5.89521e-09
7.09346e-08
2.29269e-07
1.2877e-07
1.25593e-06
1.34093e-06
1.1183e-06
1.10072e-06
1.38902e-06
1.22112e-06
2.06304e-06
1.84203e-06
1.63087e-07
1.64755e-07
2.0696e-07
1.87458e-07
3.16785e-07
4.17537e-07
6.64738e-07
6.00023e-07
1.01016e-06
1.11278e-06
1.12829e-07
9.80874e-08
-8.02682e-08
-9.79642e-08
-7.83591e-08
-1.50223e-07
7.12951e-08
6.42806e-08
2.09659e-08
1.48807e-09
-8.05784e-08
-7.11337e-08
2.25562e-07
1.87084e-07
-5.08206e-08
1.42422e-09
1.3957e-06
1.6787e-06
1.2821e-06
1.22964e-06
1.46914e-06
1.29954e-06
1.50135e-06
1.58274e-06
3.1367e-07
3.06213e-07
3.01787e-07
4.13463e-07
4.65634e-07
5.76509e-07
5.09578e-07
7.41391e-07
7.336e-07
5.58927e-07
5.83102e-07
3.17149e-07
3.17672e-07
3.41694e-07
3.65026e-07
-4.01719e-08
-3.59243e-08
-4.94506e-08
-5.49006e-08
-9.15618e-08
-7.97651e-08
-5.32698e-08
-4.59864e-08
-6.57826e-08
5.4251e-08
6.49823e-08
4.26167e-08
3.65465e-08
1.12083e-08
1.91405e-08
2.20039e-08
1.00121e-08
1.55624e-09
2.07189e-08
1.09496e-07
1.12528e-07
5.9057e-08
5.28963e-08
8.43318e-08
7.78369e-08
1.13314e-07
1.03913e-07
1.53842e-07
1.6914e-07
1.43182e-07
1.35e-07
1.54943e-07
1.57551e-07
2.78934e-07
2.82382e-07
2.81783e-07
2.77659e-07
1.98628e-07
1.84234e-07
1.82467e-07
8.38135e-08
8.3958e-08
1.18771e-07
1.33083e-07
8.61745e-08
9.56584e-08
1.22329e-09
1.21741e-09
1.21028e-09
1.20896e-09
8.18517e-10
8.28367e-10
7.70391e-10
7.79514e-10
1.95691e-09
2.06386e-09
2.03207e-09
2.1878e-09
1.48245e-09
1.58243e-09
1.10192e-09
1.04189e-09
8.86644e-10
8.62397e-10
8.01027e-10
8.16605e-10
5.96894e-10
6.03405e-10
6.00113e-10
5.8456e-10
2.65715e-10
2.53679e-10
4.60154e-10
4.73668e-10
3.56539e-10
3.33335e-10
4.78523e-10
5.09393e-10
4.24167e-10
4.54178e-10
1.83195e-10
1.69231e-10
2.32933e-10
2.4035e-10
1.7177e-10
1.87232e-10
1.5887e-10
1.6874e-10
2.45341e-10
2.50697e-10
2.17273e-10
2.1236e-10
3.2698e-10
2.89853e-10
2.68773e-10
2.65581e-10
4.06168e-10
3.98194e-10
4.64948e-10
4.7444e-10
3.46889e-10
3.43766e-10
2.9361e-10
2.88174e-10
2.65794e-07
2.25407e-07
2.05065e-07
-2.88848e-08
-4.21933e-08
1.73893e-07
6.37778e-08
1.24714e-07
3.35705e-08
3.71554e-09
3.28199e-09
3.37545e-07
3.06385e-07
-5.7012e-08
-5.62449e-08
-4.07037e-08
-3.59189e-08
2.72688e-08
1.89583e-09
-2.4062e-07
-7.1862e-08
-1.19084e-07
-9.03785e-08
7.17997e-09
7.87016e-09
4.45806e-09
4.69421e-09
-3.69601e-10
-3.79879e-10
-1.24047e-10
-1.25353e-10
-1.26877e-10
-1.23752e-10
-1.2913e-10
-1.32731e-10
-1.18944e-10
-4.53235e-11
-2.95949e-11
-3.66893e-11
3.8429e-08
4.20661e-08
1.07168e-09
1.24515e-09
1.19045e-09
2.10116e-09
2.91117e-08
3.18185e-08
-1.19169e-09
-1.62614e-09
-6.56407e-09
-7.45869e-09
-2.06965e-08
-1.87218e-08
-2.59148e-08
-2.74257e-08
-3.27958e-08
-2.83096e-08
-3.40699e-08
-1.12267e-07
7.41665e-07
6.46037e-07
1.1023e-06
9.70832e-07
5.57169e-07
5.29208e-07
4.57714e-07
5.13557e-07
3.36709e-07
3.42145e-07
2.42111e-07
2.06353e-07
2.15144e-07
2.57974e-07
-1.16299e-07
-7.59115e-08
-6.95712e-08
-6.53554e-08
-5.1757e-08
1.38535e-07
1.15953e-07
1.56412e-08
2.51796e-08
6.71085e-07
3.79894e-07
5.16791e-07
3.7174e-07
8.48997e-07
7.37301e-07
1.31659e-06
1.69973e-06
1.50485e-06
1.25151e-06
1.21455e-06
1.83876e-07
1.68187e-07
1.5393e-07
1.59346e-07
2.38177e-07
2.63646e-07
5.87719e-07
4.85862e-07
4.00493e-07
2.86353e-07
3.83763e-07
1.88108e-07
1.0069e-07
5.0832e-08
7.97509e-08
-3.62989e-09
5.51061e-08
-1.11844e-07
8.34054e-08
1.77638e-07
1.55644e-07
1.15293e-07
8.1396e-08
4.07612e-08
3.81914e-08
-6.00488e-08
-5.85966e-08
1.17072e-07
5.69475e-07
4.75383e-07
1.05996e-06
1.06812e-06
1.36759e-06
1.43938e-06
1.20787e-06
1.20299e-06
3.8832e-07
3.99075e-07
3.024e-07
2.96993e-07
4.04791e-07
4.63991e-07
5.25834e-07
5.76616e-07
4.8387e-07
5.01071e-07
6.50422e-07
6.56108e-07
3.51021e-07
3.40468e-07
-3.01621e-08
-2.65348e-08
-5.13886e-08
-4.47218e-08
-5.03879e-08
-4.50529e-08
-1.04769e-07
-1.14099e-07
-4.02127e-08
-3.38487e-08
-7.74693e-08
-7.52148e-08
4.04684e-08
3.06712e-08
4.28521e-08
5.05039e-08
6.81327e-09
2.18715e-08
7.58136e-08
7.64372e-08
6.34634e-08
5.88056e-08
9.45704e-08
1.02891e-07
1.02728e-07
9.01946e-08
1.49982e-07
1.54838e-07
1.28951e-07
1.21759e-07
1.7632e-07
1.75697e-07
2.51254e-07
2.48508e-07
2.18782e-07
2.22877e-07
2.20574e-07
2.03911e-07
8.27844e-08
8.07534e-08
7.57939e-08
7.58561e-08
1.00503e-07
1.06352e-07
1.22829e-09
1.23516e-09
8.24628e-10
8.35061e-10
8.17142e-10
8.00614e-10
4.91033e-10
4.14784e-10
1.02747e-09
1.06723e-09
2.50616e-09
2.59211e-09
2.35905e-09
2.27237e-09
1.82588e-09
1.70621e-09
1.64896e-09
1.59591e-09
1.39511e-09
1.48612e-09
9.91117e-10
1.05146e-09
5.89552e-10
5.80568e-10
8.30485e-10
8.14575e-10
7.42201e-10
7.10283e-10
5.81715e-10
5.6353e-10
4.78118e-10
4.61752e-10
5.15048e-10
4.0267e-10
4.18415e-10
4.31031e-10
4.5287e-10
4.05201e-10
3.41434e-10
3.17892e-10
4.93828e-10
5.22467e-10
5.0407e-10
4.90477e-10
2.65987e-10
2.61616e-10
2.38976e-10
2.25521e-10
2.23337e-10
2.37855e-10
2.38642e-10
2.4915e-10
1.80435e-10
1.95748e-10
2.59666e-10
2.73205e-10
2.08461e-10
1.99984e-10
8.82243e-11
1.02099e-10
1.79737e-10
1.73751e-10
2.08186e-10
2.02672e-10
2.60053e-10
2.65899e-10
3.30538e-10
2.92306e-10
2.66476e-10
2.72148e-10
4.04867e-10
3.97128e-10
4.12328e-10
4.02873e-10
3.77811e-10
3.72489e-10
3.34117e-10
3.37427e-10
3.29705e-10
3.33548e-10
2.83901e-10
2.80217e-10
2.27827e-10
2.04821e-10
1.57346e-07
1.86281e-07
6.47791e-10
9.34597e-09
1.46033e-07
1.6427e-07
1.57847e-08
-2.21934e-08
1.03171e-07
1.58602e-08
1.4824e-07
6.01299e-08
6.40118e-08
9.69962e-07
1.11562e-06
-7.15277e-08
-5.95042e-08
-8.98245e-08
-3.65231e-08
-4.32772e-08
-1.88637e-08
-3.81403e-08
1.70657e-07
-1.42985e-08
1.03268e-07
-2.48615e-08
-3.58519e-08
-8.56256e-08
-7.94137e-08
-1.84217e-08
-1.30892e-08
5.53294e-09
6.82687e-09
-1.83598e-10
-1.87197e-10
-3.65793e-10
-3.34723e-10
1.6862e-11
2.58901e-11
-9.90992e-11
-1.02509e-10
-1.34223e-10
-1.31249e-10
-9.33958e-11
-7.16105e-11
-3.48133e-11
-2.74927e-11
2.49728e-08
2.7279e-08
2.99604e-08
3.27085e-08
1.25957e-09
1.19724e-09
-1.21058e-09
-1.49279e-09
-2.67751e-09
-3.45344e-09
-3.93653e-09
-4.26026e-09
-2.07687e-09
-2.61489e-09
-3.81251e-09
-3.26778e-09
-8.58721e-09
-7.57359e-09
-1.94556e-08
-1.75835e-08
-2.1529e-08
-2.39034e-08
-3.632e-08
-3.8626e-08
4.53571e-07
4.20402e-07
5.06278e-07
4.16523e-07
9.8995e-07
1.12766e-06
7.99997e-07
8.92961e-07
4.38012e-07
4.11177e-07
3.76449e-07
3.82569e-07
2.94454e-07
3.2854e-07
2.61346e-07
2.95628e-07
-6.31602e-08
-2.72132e-08
1.33975e-08
4.38375e-08
8.91072e-08
1.52735e-07
1.49311e-07
4.9129e-08
5.43373e-08
3.77953e-07
3.29088e-07
1.14722e-06
9.86303e-07
1.45572e-06
1.67094e-06
1.26786e-07
1.31013e-07
1.75889e-07
1.69721e-07
1.03518e-06
1.14398e-06
5.30799e-07
6.00956e-07
8.05067e-07
6.68979e-07
6.73646e-08
7.03466e-08
-1.85756e-08
1.48386e-07
1.00619e-07
2.49516e-07
1.8934e-07
7.91512e-08
4.63488e-09
1.12874e-07
1.08303e-07
-5.94091e-08
-8.61474e-08
-8.73341e-08
-9.65839e-08
1.63192e-07
1.94403e-07
9.11436e-08
6.47451e-08
8.54208e-08
7.45657e-09
-5.16572e-08
-7.87855e-09
-3.38621e-08
-2.88675e-08
1.21073e-06
8.55284e-07
9.4801e-07
7.78259e-07
1.19254e-06
1.2042e-06
1.84557e-06
2.11957e-06
1.8031e-06
9.48084e-07
9.50009e-07
1.18769e-06
1.1568e-06
4.38995e-07
4.5057e-07
2.87728e-07
3.20381e-07
3.281e-07
3.63597e-07
5.08708e-07
4.49175e-07
5.63841e-07
5.43393e-07
-2.43171e-08
-2.11125e-08
-3.20368e-08
-3.57402e-08
-3.90977e-08
-3.42954e-08
-7.70518e-08
-6.97474e-08
-9.53e-08
-1.25043e-07
-1.0352e-07
-1.10931e-07
-1.0855e-07
-7.23513e-08
-8.73785e-08
-5.81315e-08
3.77017e-08
2.88616e-08
8.22664e-08
8.35511e-08
6.46197e-08
6.9599e-08
6.47479e-08
5.78151e-08
1.14692e-07
1.25316e-07
9.34465e-08
8.23604e-08
1.671e-07
1.72804e-07
1.7741e-07
1.76348e-07
2.23718e-07
2.215e-07
2.44676e-07
2.263e-07
9.16787e-08
8.94207e-08
2.97818e-09
2.86573e-09
8.75183e-10
8.56418e-10
8.18048e-10
8.04999e-10
7.90191e-10
8.00885e-10
7.08297e-10
7.40642e-10
3.84412e-10
4.64635e-10
8.7978e-10
8.70296e-10
1.48823e-09
1.41448e-09
2.11774e-09
1.90571e-09
1.86556e-09
1.92796e-09
2.0889e-09
2.2489e-09
1.54064e-09
1.64133e-09
1.76441e-09
1.89e-09
1.69198e-09
1.38933e-09
1.48038e-09
1.31111e-09
1.31175e-09
1.23465e-09
9.71343e-10
9.15983e-10
4.00175e-10
3.86079e-10
6.11794e-10
6.30786e-10
7.91748e-10
8.06135e-10
7.40296e-10
7.30553e-10
8.17649e-10
8.24989e-10
8.08446e-10
8.43214e-10
5.61502e-10
5.74376e-10
5.12618e-10
4.95812e-10
3.84289e-10
3.67858e-10
3.40989e-10
3.2679e-10
4.39904e-10
3.36715e-10
5.36002e-10
5.28266e-10
4.17749e-10
3.85308e-10
4.58589e-10
4.27092e-10
3.52121e-10
3.3787e-10
2.39121e-10
2.61115e-10
2.29672e-10
2.17558e-10
2.16244e-10
2.22606e-10
2.06596e-10
1.93807e-10
1.3596e-10
1.48226e-10
3.52884e-10
3.4618e-10
2.61202e-10
2.73901e-10
1.77122e-10
1.83531e-10
2.25222e-10
8.50397e-11
8.49687e-11
2.72148e-10
2.70709e-10
2.28343e-10
2.27021e-10
2.49936e-10
2.08979e-10
2.26318e-10
2.21462e-10
2.38552e-10
2.32719e-10
2.6898e-10
2.6381e-10
2.83357e-10
2.81474e-10
2.76634e-10
2.72063e-10
3.34126e-10
2.96099e-10
6.59482e-10
6.77321e-10
4.32548e-10
4.35458e-10
3.59827e-10
3.62096e-10
3.33232e-10
3.28412e-10
3.21189e-10
3.25117e-10
3.38774e-10
3.42009e-10
3.04623e-10
3.00806e-10
2.87334e-10
2.88577e-10
2.51616e-10
2.81769e-10
-6.95771e-08
-8.16116e-08
2.6376e-08
3.37409e-08
-3.93202e-08
3.89127e-08
3.7701e-08
2.18055e-08
-1.38164e-08
7.82223e-08
-2.43313e-08
2.77895e-07
-2.78889e-09
-1.84906e-09
1.29653e-07
1.22009e-07
8.47524e-07
8.62825e-07
2.69289e-07
3.06832e-07
-6.53902e-08
-6.44918e-08
4.15363e-08
5.12692e-08
-2.31517e-08
-7.62004e-09
6.4399e-09
6.30014e-08
1.23996e-07
2.336e-08
-3.47087e-08
-6.66717e-08
-8.67815e-08
-2.31021e-08
-4.94466e-08
-9.9702e-08
-7.22178e-09
-7.12551e-09
4.65907e-09
5.36833e-09
9.78767e-10
-2.4682e-10
-1.87485e-10
-1.85227e-10
-2.6512e-10
-2.58874e-10
-3.80986e-10
-3.48207e-10
2.38966e-11
2.5102e-11
-8.08285e-11
-7.98153e-11
-1.08866e-10
-1.06719e-10
-1.32422e-10
-1.35203e-10
-1.42789e-10
-1.45368e-10
-1.04524e-10
-1.08876e-10
-4.16407e-11
-1.14865e-11
-1.5627e-11
-2.40434e-11
1.35518e-10
1.45166e-10
4.13615e-08
4.51577e-08
3.53265e-08
3.85044e-08
2.49839e-09
2.41346e-09
4.29599e-09
4.03969e-09
6.71544e-10
-5.27572e-09
-2.8577e-09
-4.97614e-09
-4.63029e-09
2.08593e-08
1.91994e-08
-6.85178e-09
-5.9824e-09
-2.87281e-09
-2.41694e-09
-7.33878e-09
-6.44736e-09
-1.10692e-08
-1.2427e-08
-2.46363e-08
-2.21616e-08
-2.17523e-08
-1.97067e-08
-2.81294e-08
-2.59624e-08
-1.21954e-07
-1.34721e-07
4.86173e-07
4.6998e-07
4.67811e-07
3.78494e-07
8.779e-07
8.73881e-07
9.88466e-07
1.10368e-06
3.90548e-07
3.65975e-07
5.2754e-07
5.34848e-07
2.72939e-07
2.70602e-07
-1.27046e-07
-1.42809e-07
-6.13229e-08
1.30778e-07
1.44154e-06
1.52691e-06
1.44396e-07
1.39656e-07
1.24976e-06
5.39087e-07
4.86546e-07
7.52828e-07
5.47959e-07
7.70491e-09
3.19632e-08
1.08749e-07
2.93361e-07
2.22347e-07
1.8778e-07
4.26291e-08
-1.25652e-08
-3.4143e-08
-1.20886e-07
-1.18943e-07
-1.34137e-07
1.68426e-07
2.17336e-07
6.37227e-08
6.08194e-08
9.28738e-09
3.57134e-08
-3.25903e-08
5.60807e-07
4.51465e-07
3.93608e-07
7.31347e-07
7.44939e-07
7.92947e-07
8.42363e-07
9.79264e-07
8.49418e-07
1.51359e-06
1.51683e-06
1.87653e-06
1.8372e-06
8.38165e-07
8.35902e-07
1.02665e-06
1.05428e-06
3.94359e-07
4.20076e-07
3.41732e-07
3.52801e-07
4.1755e-07
3.72571e-07
-2.35333e-08
-1.94367e-08
-1.1191e-08
-9.06154e-09
-1.84526e-08
-2.3386e-08
-2.79023e-08
-5.12065e-08
-5.79975e-08
-7.12098e-08
-7.5596e-08
-1.25909e-07
-1.23029e-07
-9.63337e-08
-3.90747e-08
-4.95565e-08
-7.38391e-08
1.10234e-07
1.16458e-07
8.98468e-08
9.19253e-08
5.38624e-08
4.83797e-08
1.26468e-07
1.38494e-07
1.58651e-07
1.57813e-07
2.07829e-07
2.15429e-07
3.70286e-10
4.59152e-10
6.3058e-09
6.03109e-09
9.99367e-10
1.02266e-09
2.51334e-09
2.59893e-09
7.52985e-10
7.36906e-10
8.10232e-10
8.11329e-10
7.27983e-10
7.54375e-10
7.91545e-10
8.07793e-10
7.66106e-10
3.68904e-10
2.84922e-10
9.43614e-10
9.58161e-10
8.94179e-10
8.61755e-10
9.28823e-10
9.23319e-10
1.80138e-09
1.89204e-09
2.39405e-09
2.36049e-09
2.52325e-09
2.55855e-09
2.54878e-09
2.75245e-09
2.42787e-09
1.72732e-09
1.75232e-09
1.81154e-09
1.9415e-09
1.37045e-09
1.45604e-09
1.29643e-09
1.30101e-09
8.47111e-10
8.97152e-10
9.41601e-10
1.00001e-09
4.66452e-10
4.52755e-10
6.16522e-10
5.98723e-10
7.31451e-10
7.10494e-10
7.77144e-10
8.61558e-10
8.45162e-10
6.17241e-10
5.90858e-10
7.03235e-10
7.07848e-10
7.74726e-10
7.71519e-10
6.19455e-10
6.01382e-10
6.41042e-10
6.27855e-10
4.96915e-10
5.31109e-10
4.14385e-10
3.98592e-10
4.02483e-10
3.3901e-10
3.54702e-10
4.09204e-10
3.89228e-10
4.99599e-10
4.70287e-10
3.66251e-10
3.76185e-10
4.47367e-10
4.6248e-10
4.04758e-10
4.35383e-10
2.99054e-10
2.88992e-10
2.79357e-10
1.90275e-10
1.78649e-10
2.58952e-10
2.74492e-10
2.32021e-10
2.05317e-10
2.15651e-10
1.50739e-10
1.63464e-10
1.62847e-10
4.46009e-10
4.35163e-10
2.72157e-10
2.8563e-10
2.26174e-10
2.38737e-10
2.06124e-10
2.1099e-10
1.80709e-10
1.79043e-10
1.95036e-10
2.016e-10
3.1389e-10
2.49631e-10
1.41767e-10
2.34713e-10
2.33694e-10
1.80226e-10
1.86644e-10
2.03182e-10
1.99213e-10
2.17988e-10
2.13063e-10
2.43054e-10
2.37103e-10
2.71842e-10
2.67055e-10
2.79132e-10
2.76677e-10
2.50727e-10
2.53477e-10
2.74443e-10
2.69383e-10
2.83882e-10
2.89532e-10
6.037e-10
5.88016e-10
4.22059e-10
4.12046e-10
4.13048e-10
4.17904e-10
4.33566e-10
4.38761e-10
4.21755e-10
4.2736e-10
3.6626e-10
3.71234e-10
3.42091e-10
3.37551e-10
3.777e-10
3.85445e-10
3.29625e-10
3.329e-10
2.97946e-10
2.91944e-10
2.98782e-10
2.98548e-10
2.90222e-10
2.88662e-10
2.55949e-10
3.54708e-10
2.48251e-10
1.91816e-09
1.94059e-09
6.22519e-07
5.48987e-07
4.24841e-08
1.53612e-07
1.0292e-07
4.44665e-08
3.59954e-09
1.032e-07
1.39775e-07
2.76157e-08
-2.56424e-08
-1.87195e-07
3.46047e-09
3.07091e-09
7.22791e-08
6.77541e-08
3.17114e-07
2.79799e-07
7.09452e-07
7.15877e-07
9.67497e-07
1.0712e-06
6.66145e-07
7.11084e-07
1.89218e-07
1.12146e-07
-8.15308e-09
9.02136e-09
4.1715e-08
6.11005e-08
-5.36418e-08
-4.54866e-08
-3.68087e-08
1.36859e-07
5.50256e-08
1.71759e-08
1.6239e-07
2.04774e-07
8.82037e-09
-2.07808e-08
-3.99041e-08
4.10106e-07
3.59843e-07
3.40435e-07
-2.078e-08
-1.97619e-08
-1.88635e-08
1.06309e-08
8.7214e-09
3.73555e-10
3.94509e-10
-2.55839e-10
-2.56477e-10
-1.85077e-10
-1.89897e-10
-1.67023e-10
-1.65094e-10
-2.585e-10
-2.52943e-10
-3.95558e-10
-3.61305e-10
-2.55155e-10
-2.60745e-10
1.64247e-11
1.53627e-11
-1.02565e-10
-1.03855e-10
-1.11694e-10
-1.08768e-10
-1.12551e-10
-1.10685e-10
-1.24232e-10
-1.27862e-10
-1.26545e-10
-1.23202e-10
-1.40539e-10
-1.45933e-10
-1.56212e-10
-1.6799e-10
-4.52835e-11
-4.05988e-11
9.48914e-12
3.31763e-11
-4.36794e-11
-4.57088e-11
-4.92646e-11
-2.55748e-11
-1.40707e-11
2.74345e-12
2.3896e-10
2.18267e-10
3.49159e-08
3.81008e-08
2.94928e-08
2.71232e-08
2.90516e-09
3.03598e-09
3.8181e-09
4.04994e-09
-3.12682e-10
3.9496e-10
-4.77325e-10
-8.93599e-10
-4.15307e-09
-3.67783e-09
1.49244e-08
1.37826e-08
-1.64425e-08
-2.00831e-08
-1.64122e-09
-1.31137e-09
-4.47393e-09
-5.16264e-09
-8.07401e-09
-7.10892e-09
-1.39291e-08
-1.55522e-08
-3.12854e-08
-3.44243e-08
-1.80898e-08
-1.62937e-08
-2.61782e-08
-2.40142e-08
-2.3433e-08
-2.11302e-08
7.52803e-09
7.35157e-09
5.80088e-07
6.66359e-07
6.95967e-07
4.084e-07
3.66516e-07
7.83759e-07
7.73032e-07
4.08899e-07
-9.77713e-08
9.94261e-09
7.49323e-09
1.04334e-06
9.60761e-07
1.21915e-06
4.81844e-07
4.39663e-07
1.69231e-07
1.32734e-07
2.69845e-07
2.36937e-07
2.55309e-07
1.27727e-07
-4.37216e-08
-1.23034e-07
-1.35167e-07
-5.20975e-08
-7.73555e-08
-1.73534e-07
1.41102e-07
1.75244e-07
-1.49452e-09
-9.74823e-09
3.90801e-07
2.61476e-07
4.45708e-07
5.225e-07
4.06103e-07
9.34456e-07
1.1385e-06
8.83684e-07
9.14632e-07
8.67058e-07
7.58529e-07
1.35067e-06
1.35634e-06
1.64658e-06
1.69462e-06
8.07718e-07
8.28404e-07
1.06902e-06
1.07297e-06
3.69944e-07
3.4499e-07
-2.78693e-08
-3.21637e-08
-7.4534e-09
-1.31229e-08
-3.14578e-08
-3.5466e-08
-5.95651e-08
-6.56718e-08
-1.11751e-07
-1.05014e-07
-2.81304e-08
1.05162e-07
9.9595e-08
1.21401e-07
1.24924e-07
7.10085e-08
7.66614e-08
1.96718e-07
1.90265e-07
-1.09071e-08
-1.22147e-08
2.09094e-08
2.0428e-08
6.15249e-09
5.99604e-09
8.62303e-10
8.45767e-10
1.06744e-09
1.06616e-09
2.31933e-09
2.42322e-09
7.48314e-10
7.80852e-10
1.21532e-09
1.22629e-09
1.34667e-10
6.92095e-11
8.27571e-10
8.39181e-10
8.10614e-10
8.16711e-10
7.65555e-10
7.75016e-10
7.86108e-10
8.00556e-10
2.72574e-10
1.76556e-10
9.8226e-10
1.00051e-09
9.06071e-10
9.17801e-10
9.22563e-10
9.28968e-10
1.50118e-09
1.55344e-09
1.65104e-09
1.72366e-09
2.29956e-09
2.39229e-09
1.96241e-09
1.86157e-09
2.68873e-09
2.79794e-09
2.4768e-09
2.5133e-09
2.65067e-09
2.45367e-09
1.61733e-09
1.51642e-09
1.30568e-09
1.29271e-09
1.33774e-09
1.42405e-09
8.79686e-10
8.29983e-10
9.69289e-10
1.02831e-09
3.9226e-10
3.76672e-10
4.47264e-10
4.33498e-10
6.01427e-10
5.83488e-10
7.66491e-10
7.80808e-10
8.61957e-10
8.79686e-10
8.36442e-10
8.52642e-10
7.43612e-10
7.26036e-10
7.62278e-10
7.58832e-10
7.41124e-10
7.37388e-10
8.30842e-10
8.37559e-10
8.36907e-10
8.28222e-10
5.29165e-10
5.44545e-10
5.58326e-10
5.72228e-10
5.14762e-10
5.31183e-10
5.65626e-10
5.4697e-10
4.20542e-10
4.37266e-10
4.45986e-10
4.29409e-10
3.09499e-10
3.25704e-10
3.43914e-10
3.2848e-10
4.232e-10
3.79869e-10
5.516e-10
5.45246e-10
3.97141e-10
3.68252e-10
3.645e-10
3.44311e-10
3.07018e-10
3.30447e-10
4.22221e-10
4.52475e-10
3.22134e-10
3.10935e-10
1.77062e-10
1.64149e-10
2.70536e-10
2.87721e-10
1.93104e-10
2.096e-10
2.12613e-10
2.2158e-10
1.7774e-10
1.73331e-10
3.43966e-10
3.37242e-10
2.08286e-10
1.91061e-10
2.49201e-10
2.61378e-10
1.36818e-10
2.34147e-10
1.93978e-10
1.87749e-10
7.6915e-11
7.67522e-11
9.88999e-11
1.00857e-10
2.31629e-10
2.37954e-10
2.60411e-10
2.60066e-10
2.46097e-10
2.51078e-10
2.37232e-10
2.36098e-10
2.13467e-10
2.10796e-10
1.92855e-10
1.85442e-10
2.08641e-10
2.05457e-10
2.17014e-10
2.21701e-10
3.19064e-10
2.85681e-10
2.74209e-10
2.69889e-10
2.62866e-10
2.58028e-10
2.78649e-10
2.74407e-10
3.34455e-10
2.97526e-10
3.33784e-10
2.97548e-10
6.57783e-10
6.61508e-10
5.94706e-10
6.09909e-10
4.22287e-10
4.33018e-10
4.22954e-10
4.2633e-10
4.57718e-10
4.51079e-10
4.3493e-10
4.35062e-10
3.60152e-10
3.64418e-10
3.5286e-10
3.58307e-10
3.3259e-10
3.37255e-10
3.29948e-10
3.23747e-10
3.29224e-10
3.25262e-10
3.302e-10
2.88866e-10
2.9033e-10
2.9499e-10
2.7841e-10
2.78631e-10
2.92888e-10
2.90995e-10
2.60361e-10
2.6288e-10
2.58443e-10
2.02171e-09
-7.00762e-10
-1.23154e-07
-1.28971e-07
5.10245e-07
4.463e-07
-6.52618e-08
-9.42626e-08
1.60113e-07
1.07418e-07
2.21536e-08
8.37828e-08
1.73776e-07
2.08101e-07
2.16754e-07
2.16851e-07
5.31492e-08
1.02587e-07
2.19671e-07
2.76434e-07
-4.58468e-08
-4.1506e-08
1.82009e-08
2.12264e-08
4.56725e-08
6.54609e-08
1.24655e-07
1.10574e-07
3.02552e-07
3.41868e-07
6.35398e-07
6.36758e-07
6.49587e-07
6.78667e-07
9.81863e-07
1.0842e-06
6.33455e-07
5.95729e-07
1.06946e-06
1.01095e-06
2.15244e-07
1.50031e-07
2.94124e-08
6.13866e-09
-5.08962e-09
5.14939e-08
-3.03953e-08
-1.28635e-08
2.32312e-08
6.89703e-08
9.0265e-08
1.32508e-07
1.76777e-07