/*--------------------------------*- C++ -*----------------------------------*\
  =========                 |
  \\      /  F ield         | OpenFOAM: The Open Source CFD Toolbox
   \\    /   O peration     | Website:  https://openfoam.org
    \\  /    A nd           | Version:  7
     \\/     M anipulation  |
\*---------------------------------------------------------------------------*/
FoamFile
{
    version     2.0;
    format      ascii;
    class       volScalarField;
    location    "0.06";
    object      p;
}
// * * * * * * * * * * * * * * * * * * * * * * * * * * * * * * * * * * * * * //

dimensions      [0 2 -2 0 0 0 0];

internalField   nonuniform List<scalar> 
238806
(
6.64377e-07
6.60411e-07
-6.23315e-08
9.61741e-08
8.54853e-09
5.98534e-07
6.06762e-07
6.90591e-07
7.63661e-07
1.46258e-07
1.68173e-07
2.34064e-07
7.00491e-08
6.59621e-08
-9.62391e-08
-1.11141e-07
1.20187e-07
7.97006e-08
2.12395e-06
2.14098e-06
8.84819e-08
7.85382e-08
-9.51311e-08
-6.2681e-08
-3.43433e-08
8.20479e-08
2.46364e-08
7.66598e-08
-1.96707e-08
-1.09426e-07
1.89278e-06
2.10174e-06
4.5999e-08
6.76389e-08
1.30785e-07
1.45601e-07
3.68272e-10
3.2556e-10
1.23223e-07
2.50316e-07
1.94741e-07
-2.45393e-08
2.35294e-06
2.58673e-06
1.91256e-06
1.89346e-06
-4.97942e-08
-3.44529e-08
8.95748e-08
1.11044e-07
2.64832e-07
2.75449e-07
7.73426e-08
7.26895e-08
-1.93e-10
-1.98431e-10
1.56821e-07
5.07013e-08
1.436e-07
2.20146e-07
1.63178e-07
3.16815e-07
1.93551e-07
2.60042e-07
3.01362e-07
1.7058e-06
1.70729e-06
8.69285e-07
7.80123e-07
4.36435e-07
3.88376e-07
6.15039e-08
4.25473e-08
1.08033e-07
8.65661e-08
2.00078e-07
1.85719e-07
1.30355e-07
1.44965e-07
1.67391e-09
1.65652e-09
6.05342e-08
8.90505e-08
1.03258e-06
1.08954e-06
3.81945e-07
3.42006e-07
3.01822e-08
-4.81827e-08
6.86711e-08
3.14281e-08
3.17641e-07
2.05082e-07
1.95765e-06
1.90567e-06
2.54375e-07
2.82099e-07
1.45761e-07
1.10329e-07
-1.63372e-08
1.68424e-06
8.78285e-07
8.28634e-07
7.41833e-07
7.44738e-07
3.30052e-08
2.65564e-08
9.34458e-08
7.62707e-08
6.49933e-08
4.38797e-08
1.92222e-07
2.14602e-07
2.45976e-07
2.35927e-07
7.34449e-08
8.11072e-08
2.99861e-10
3.67181e-10
1.90874e-10
-1.31766e-07
-1.26032e-07
8.53883e-07
8.05804e-07
6.67445e-07
6.76038e-07
-1.2238e-07
-1.43303e-07
2.68358e-09
5.68618e-09
2.60521e-07
-3.8421e-09
4.91168e-08
-3.76437e-08
1.21098e-07
2.67803e-07
1.7997e-06
2.01872e-06
-2.40594e-07
-6.94181e-08
-1.22256e-07
-7.18662e-08
1.84415e-07
1.24509e-06
9.99452e-07
1.1159e-06
1.05569e-06
7.38847e-07
7.81244e-07
5.20283e-07
4.85408e-07
3.29659e-07
3.09375e-07
2.28613e-08
1.40854e-08
7.37086e-08
6.16409e-08
5.89898e-08
4.19547e-08
8.0664e-08
7.19341e-08
1.80382e-07
1.68814e-07
2.75086e-07
2.64609e-07
1.26717e-07
1.41292e-07
1.94964e-09
1.9648e-09
3.665e-10
3.25158e-10
5.51151e-08
7.96388e-08
-4.97499e-08
-3.81514e-08
-1.93934e-08
9.60918e-07
9.0693e-07
2.99333e-07
2.86178e-07
-1.08497e-07
-1.34008e-07
-6.41931e-08
7.28922e-08
-9.91149e-09
4.33359e-08
1.00587e-06
9.21478e-07
2.18064e-06
2.44055e-06
2.33437e-06
2.5735e-06
9.85455e-07
8.23124e-07
1.42323e-07
2.15483e-09
1.48816e-07
-4.4005e-08
-6.11958e-08
3.8699e-09
-6.73021e-08
2.03653e-06
2.08802e-06
1.11225e-06
1.05232e-06
9.80553e-07
8.69911e-07
3.31306e-07
2.95985e-07
4.32287e-07
4.64498e-07
-5.88068e-08
-6.55017e-08
6.15855e-09
-1.3663e-09
1.18253e-08
2.51507e-08
1.60365e-08
3.03552e-08
8.09217e-08
1.00327e-07
1.91622e-07
1.74218e-07
2.11212e-07
2.48159e-07
2.38742e-07
2.46568e-07
1.29591e-07
1.44364e-07
3.71885e-09
3.97344e-09
1.49248e-09
1.53102e-09
5.64147e-10
5.45119e-10
6.8953e-10
6.74034e-10
3.51297e-07
4.03275e-07
3.68144e-08
1.03516e-07
-1.29819e-07
-1.40939e-07
-2.96081e-09
-2.26549e-09
7.54847e-07
7.11487e-07
3.54901e-07
3.71797e-07
2.96245e-07
2.70165e-07
1.43909e-07
1.55325e-07
7.88164e-09
1.1386e-08
5.57275e-08
1.16695e-07
1.8679e-06
2.2096e-06
2.08729e-06
2.363e-06
1.89126e-06
2.10758e-06
1.8605e-07
1.87999e-07
8.21246e-07
9.14004e-07
1.93922e-07
2.20298e-07
-1.34668e-08
-2.99719e-08
2.42996e-07
-5.48822e-08
1.03367e-09
1.79149e-07
1.27331e-07
1.85312e-06
1.7911e-06
1.41169e-06
1.33492e-06
9.36994e-07
9.90788e-07
5.76864e-07
6.16501e-07
5.80918e-07
5.85038e-07
4.49368e-07
4.3479e-07
-1.36364e-08
-1.0629e-08
-4.32174e-08
-5.27456e-08
6.97622e-09
1.14465e-10
2.6477e-09
-7.38795e-09
2.51155e-08
8.31877e-09
2.40655e-08
3.2787e-09
5.54433e-08
4.00967e-08
7.00401e-08
7.12148e-08
1.39716e-07
1.20916e-07
1.96805e-07
1.89905e-07
2.22116e-07
2.03164e-07
7.60732e-08
7.79043e-08
1.13899e-07
1.16563e-07
1.07291e-07
9.71048e-08
2.14277e-09
2.14194e-09
2.75537e-09
2.9054e-09
1.41895e-09
1.35311e-09
1.59709e-09
1.61664e-09
3.98575e-10
3.71019e-10
6.83833e-10
6.99537e-10
3.37308e-10
5.06034e-08
7.62183e-08
-1.07115e-07
-1.03488e-07
-3.0641e-10
-3.04302e-10
3.56229e-08
3.84487e-08
-3.34886e-08
-2.52539e-08
7.07923e-07
6.63287e-07
7.40486e-07
7.36756e-07
3.17424e-07
3.32795e-07
2.59167e-07
2.475e-07
-2.23608e-07
-6.12747e-08
-1.0951e-07
-5.52557e-08
4.38947e-07
5.74768e-07
1.32387e-06
1.99755e-06
1.46281e-06
1.21921e-06
1.15712e-06
2.1301e-06
1.91738e-06
2.27009e-07
2.29661e-07
4.28569e-07
5.35997e-07
6.06546e-07
8.32252e-07
-2.14001e-07
-2.87794e-08
-7.60328e-08
3.04902e-07
3.07282e-07
2.39058e-08
8.54944e-08
2.01792e-07
-2.00061e-08
2.31568e-07
6.28855e-08
7.61574e-07
6.71998e-07
1.82841e-06
1.95581e-06
1.36143e-06
1.35185e-06
1.39901e-06
1.2478e-06
1.23185e-06
1.06928e-06
1.9346e-07
1.857e-07
2.60187e-07
2.91589e-07
6.57741e-07
6.47755e-07
7.20636e-07
6.92797e-07
4.59675e-07
4.57762e-07
4.13594e-07
3.86324e-07
2.85096e-07
2.57293e-07
-6.0982e-08
-5.42472e-08
4.23531e-08
4.92077e-08
7.27289e-09
1.09265e-09
4.57105e-09
-4.74146e-09
-4.83696e-09
-1.83889e-08
-1.88228e-08
-3.64491e-08
5.25168e-08
3.87529e-08
7.73561e-08
8.13638e-08
1.27612e-07
1.11208e-07
2.11584e-07
2.19959e-07
1.39345e-07
1.41455e-07
1.06044e-07
1.17475e-07
1.02643e-07
1.05066e-07
1.1857e-07
2.39964e-09
2.40336e-09
3.78704e-09
4.04621e-09
2.2872e-09
2.17159e-09
2.24076e-09
2.35099e-09
1.51492e-09
1.47021e-09
9.8391e-10
1.03432e-09
4.15046e-10
3.89985e-10
4.25672e-10
4.16508e-10
1.41197e-09
1.44846e-09
3.33035e-08
1.77717e-07
3.63918e-08
-2.98008e-08
-2.39914e-08
-2.10293e-07
-1.25128e-07
-1.56848e-07
-1.2835e-07
-1.86711e-10
-1.96243e-10
4.11712e-09
4.26123e-09
-3.44666e-08
-3.15669e-08
-3.04403e-08
-3.26437e-08
-1.17147e-07
-1.34928e-07
7.03788e-07
8.53874e-07
6.42283e-07
6.28178e-07
4.28177e-07
4.35761e-07
3.32239e-07
1.71108e-07
1.39328e-07
2.04122e-07
3.08055e-10
-1.09432e-07
-1.765e-08
-6.94351e-08
1.20849e-06
2.12032e-06
1.75154e-06
1.73598e-06
1.65576e-06
1.64096e-06
1.59862e-06
2.29862e-06
2.54181e-06
1.53208e-07
1.54687e-07
2.2122e-07
2.0052e-07
2.78058e-07
2.51181e-07
8.58763e-07
7.5865e-07
1.62425e-07
1.84111e-07
9.85006e-08
2.29496e-08
3.26395e-08
-5.18011e-08
-2.34252e-07
-8.32824e-08
-1.34227e-07
-7.9629e-08
-1.22563e-08
9.63281e-08
5.47868e-07
5.91102e-07
1.20003e-06
1.15792e-06
1.64125e-06
1.57569e-06
1.32718e-06
1.49073e-06
1.77957e-06
1.69598e-06
1.18709e-06
1.25431e-06
2.18664e-07
2.17048e-07
3.67575e-07
3.27265e-07
4.82272e-07
5.48188e-07
5.15718e-07
5.18491e-07
6.52959e-07
5.91617e-07
3.61235e-07
3.61861e-07
3.87707e-07
3.99969e-07
2.78761e-07
2.96021e-07
-3.73929e-08
-4.19047e-08
-1.17958e-07
-9.54514e-08
5.31411e-08
6.27046e-08
2.82068e-08
3.53658e-08
1.39576e-08
2.10866e-08
1.40344e-08
2.37516e-08
5.57425e-09
-2.70924e-09
-1.13021e-09
-1.36259e-08
-1.33128e-08
-2.90409e-08
6.63711e-08
7.98964e-08
4.93373e-08
3.71016e-08
1.02059e-07
1.04735e-07
8.8794e-08
9.61909e-08
1.16218e-07
1.01804e-07
1.46425e-07
1.69658e-07
1.4248e-07
1.38284e-07
2.51018e-07
2.54713e-07
1.66632e-07
1.74415e-07
1.38124e-07
1.30215e-07
1.17745e-07
1.06194e-07
8.8138e-08
7.98687e-08
2.57113e-09
2.53439e-09
2.11642e-09
2.11903e-09
2.80775e-09
2.95276e-09
1.86897e-09
1.88698e-09
1.39684e-09
1.46406e-09
1.95206e-09
1.91355e-09
1.12912e-09
1.07543e-09
5.94565e-10
5.9006e-10
4.20029e-10
4.45022e-10
2.94317e-10
2.93639e-10
3.74273e-10
3.28666e-10
1.01143e-09
9.38237e-10
7.01911e-10
6.9571e-10
-6.60258e-08
-3.09589e-08
3.59323e-07
2.07034e-07
-4.85353e-08
-4.5933e-08
2.96372e-08
7.18048e-09
-2.32457e-08
1.12722e-09
-1.08431e-07
-9.85355e-08
-1.73246e-10
-1.79071e-10
2.49313e-11
5.93159e-11
-5.3679e-10
-9.63829e-10
-3.56493e-09
-2.82435e-09
-1.4576e-08
-1.65e-08
-3.14953e-08
-4.0387e-08
-1.85793e-08
-3.85208e-08
5.82133e-07
4.72015e-07
8.33182e-07
9.57631e-07
9.93137e-07
1.09121e-06
5.83968e-07
6.53613e-07
4.77968e-07
4.88134e-07
3.0793e-07
3.38472e-07
2.39445e-07
2.38136e-07
-9.71055e-08
-1.233e-07
1.00361e-07
9.21781e-08
3.98352e-08
1.46717e-08
-1.64773e-08
2.5546e-07
1.65545e-07
1.17044e-06
1.09591e-06
1.89841e-06
1.5035e-06
1.47188e-06
1.42001e-06
2.24564e-06
2.4919e-06
1.39276e-07
1.40566e-07
2.59315e-07
2.35236e-07
2.05472e-07
2.0769e-07
6.64807e-07
7.34046e-07
9.55343e-07
1.09513e-06
-7.01093e-09
3.92857e-08
-1.30032e-07
1.72392e-08
1.00791e-07
9.75562e-08
2.10222e-07
-1.82007e-08
3.10125e-07
2.92523e-07
2.46701e-07
6.6509e-08
1.05976e-08
-9.12735e-08
1.37778e-08
6.76139e-07
6.18078e-07
1.69926e-06
1.55764e-06
1.51747e-06
1.52573e-06
1.58605e-06
1.41131e-06
2.62448e-07
1.78616e-07
2.58841e-07
2.66116e-07
2.28424e-07
4.77245e-07
5.33587e-07
5.68789e-07
5.0204e-07
6.2796e-07
7.32596e-07
6.17541e-07
6.40775e-07
4.94065e-07
5.28047e-07
3.08575e-07
3.16991e-07
4.06749e-07
4.07937e-07
3.54926e-07
3.18075e-07
-1.81985e-08
-2.19632e-08
-4.27051e-08
-3.75381e-08
-8.19551e-08
-9.17685e-08
-5.56385e-08
-6.36051e-08
3.51106e-08
4.62025e-08
4.92928e-08
5.78146e-08
2.98662e-08
3.78474e-08
2.00872e-08
1.36133e-08
1.31781e-08
2.40579e-08
1.23898e-09
-9.9896e-09
-7.88526e-09
-2.29509e-08
7.10313e-08
8.63614e-08
8.4847e-08
8.93138e-08
7.36939e-08
6.59491e-08
1.56613e-07
1.43058e-07
1.54164e-07
1.32551e-07
1.6272e-07
1.52984e-07
2.02673e-07
2.01239e-07
2.2741e-07
1.70233e-07
1.67349e-07
1.54564e-07
1.78702e-07
9.60097e-08
9.59947e-08
1.15551e-07
1.28247e-07
8.51361e-08
9.41691e-08
2.34614e-08
2.48951e-08
2.56318e-09
2.55546e-09
2.06327e-09
2.04856e-09
2.06321e-09
2.06201e-09
3.01628e-09
2.84038e-09
2.2414e-09
2.36114e-09
2.26897e-09
2.3834e-09
1.51794e-09
1.449e-09
1.41724e-09
1.43861e-09
1.01625e-09
9.78427e-10
1.13925e-09
1.18443e-09
1.02742e-09
1.07656e-09
6.67963e-10
6.93799e-10
4.75305e-10
4.4658e-10
4.82359e-10
4.93e-10
3.98283e-10
4.06758e-10
2.90003e-10
2.88789e-10
3.71189e-10
3.26863e-10
3.8016e-10
3.32693e-10
1.0377e-09
1.00231e-09
3.62285e-10
1.62818e-10
2.76095e-10
-1.67501e-08
-2.05472e-08
3.97878e-07
2.40848e-07
4.29533e-07
4.36979e-07
3.86311e-07
4.49288e-07
6.60271e-07
-5.41621e-08
-4.79882e-08
2.29807e-08
4.04284e-08
1.04311e-08
2.94016e-08
-6.284e-08
-9.17115e-08
-2.40905e-08
-3.82401e-08
5.71343e-09
4.46207e-09
-2.66387e-11
-2.20835e-11
-1.7387e-10
-1.80004e-10
-1.89263e-10
-1.94891e-10
-7.01208e-11
5.4206e-11
1.08906e-08
1.15754e-08
3.75216e-09
3.96678e-09
-1.08312e-09
-5.84174e-10
-2.13756e-09
-1.51885e-09
-1.97735e-08
-1.76164e-08
-3.57554e-08
-1.66298e-08
-4.02874e-08
-3.80711e-08
-3.20953e-08
3.06076e-07
3.60959e-07
7.1575e-07
5.07407e-07
8.22441e-07
9.76244e-07
7.41014e-07
6.54031e-07
6.89082e-07
7.23221e-07
4.71144e-07
4.99455e-07
3.13279e-07
3.08486e-07
3.83528e-07
4.29761e-07
1.89344e-07
1.95786e-07
-6.59383e-08
-7.30508e-08
1.25945e-07
1.20476e-07
1.32335e-08
7.78717e-08
2.37323e-07
1.36978e-07
1.26366e-06
1.34854e-06
1.12644e-06
1.10891e-06
1.39649e-06
1.22866e-06
2.07014e-06
1.84927e-06
1.68789e-07
1.70443e-07
2.13158e-07
1.935e-07
3.25106e-07
4.25531e-07
6.72848e-07
6.08046e-07
1.01822e-06
1.12086e-06
1.21837e-07
1.07158e-07
-7.12368e-08
-9.47782e-08
-7.53464e-08
-1.46857e-07
7.47218e-08
6.76632e-08
2.42842e-08
4.80788e-09
-7.71413e-08
-6.78908e-08
2.29469e-07
1.91135e-07
-4.70718e-08
5.24e-09
1.40049e-06
1.68348e-06
1.28664e-06
1.23416e-06
1.47376e-06
1.30424e-06
1.50639e-06
1.58766e-06
3.17839e-07
3.10304e-07
3.0579e-07
4.17591e-07
4.6981e-07
5.81002e-07
5.14015e-07
7.46064e-07
7.38383e-07
5.64192e-07
5.8824e-07
3.21486e-07
3.21923e-07
3.46693e-07
3.69884e-07
-3.77032e-08
-3.34365e-08
-4.70318e-08
-5.25193e-08
-8.93024e-08
-7.74894e-08
-5.05482e-08
-4.32915e-08
-6.28039e-08
5.7256e-08
6.80297e-08
4.53788e-08
3.92875e-08
1.39323e-08
2.18969e-08
2.49235e-08
1.28829e-08
4.62157e-09
2.38328e-08
1.12799e-07
1.15884e-07
6.19207e-08
5.57376e-08
8.74069e-08
8.08707e-08
1.16618e-07
1.07168e-07
1.57369e-07
1.72722e-07
1.46674e-07
1.38437e-07
1.58764e-07
1.61332e-07
2.83029e-07
2.8655e-07
2.86032e-07
2.81993e-07
2.03123e-07
1.88785e-07
1.86849e-07
8.69582e-08
8.70727e-08
1.22432e-07
1.36853e-07
8.94984e-08
9.90937e-08
2.55354e-09
2.54332e-09
2.52696e-09
2.51927e-09
2.07658e-09
2.10179e-09
2.11421e-09
2.1396e-09
3.26742e-09
3.40387e-09
2.93678e-09
3.11946e-09
2.30641e-09
2.4264e-09
1.92611e-09
1.84537e-09
1.53597e-09
1.48863e-09
1.85782e-09
1.88587e-09
1.37246e-09
1.39455e-09
1.16981e-09
1.1332e-09
7.44781e-10
7.189e-10
1.13413e-09
1.16612e-09
8.92146e-10
8.54481e-10
1.0993e-09
1.14816e-09
9.74102e-10
1.02226e-09
5.45226e-10
5.20664e-10
6.18937e-10
6.38653e-10
4.75344e-10
5.01958e-10
5.13058e-10
5.24827e-10
4.07133e-10
4.16012e-10
2.95593e-10
2.97114e-10
3.69849e-10
3.26136e-10
3.64709e-10
3.70117e-10
7.90275e-10
7.71172e-10
1.00465e-09
1.02994e-09
7.13254e-10
7.0891e-10
5.80269e-10
5.70809e-10
2.6519e-07
2.24431e-07
2.03856e-07
-3.0921e-08
-4.42503e-08
1.72096e-07
6.15052e-08
1.22442e-07
3.16713e-08
3.49503e-09
3.06607e-09
3.38877e-07
3.07585e-07
-5.71759e-08
-5.64792e-08
-4.03488e-08
-3.57293e-08
2.84133e-08
3.15816e-09
-2.38826e-07
-6.87e-08
-1.16714e-07
-8.76724e-08
5.50196e-09
6.09128e-09
3.19015e-09
3.42308e-09
-4.54594e-10
-4.6537e-10
-1.92017e-10
-1.95997e-10
-1.78874e-10
-1.72474e-10
-1.87002e-10
-1.94075e-10
-1.14982e-10
-1.65855e-12
2.62112e-12
-7.36362e-12
4.2281e-08
4.60371e-08
2.99708e-09
3.17757e-09
3.64581e-09
4.55232e-09
3.26134e-08
3.53893e-08
1.95577e-09
1.57827e-09
-3.75763e-09
-4.61452e-09
-1.7714e-08
-1.57702e-08
-2.29805e-08
-2.43917e-08
-2.97328e-08
-2.52586e-08
-3.10559e-08
-1.07046e-07
7.49395e-07
6.53724e-07
1.1098e-06
9.78317e-07
5.64328e-07
5.36395e-07
4.64682e-07
5.20617e-07
3.43359e-07
3.48808e-07
2.49024e-07
2.13666e-07
2.21892e-07
2.64644e-07
-1.10586e-07
-7.00364e-08
-6.4171e-08
-5.9039e-08
-4.5496e-08
1.45683e-07
1.22997e-07
2.21562e-08
3.15019e-08
6.78879e-07
3.88205e-07
5.24767e-07
3.79893e-07
8.57124e-07
7.45588e-07
1.32443e-06
1.70706e-06
1.51234e-06
1.25909e-06
1.22218e-06
1.90519e-07
1.74647e-07
1.59661e-07
1.65065e-07
2.44506e-07
2.70118e-07
5.96007e-07
4.94375e-07
4.0891e-07
2.94724e-07
3.919e-07
1.9659e-07
1.09592e-07
5.97744e-08
8.83494e-08
4.22754e-09
6.36746e-08
-1.03495e-07
8.69672e-08
1.81086e-07
1.59461e-07
1.18793e-07
8.48567e-08
4.41411e-08
4.15162e-08
-5.6702e-08
-5.5374e-08
1.20941e-07
5.74032e-07
4.79967e-07
1.0645e-06
1.07272e-06
1.37217e-06
1.44394e-06
1.21255e-06
1.20773e-06
3.92543e-07
4.03383e-07
3.06435e-07
3.01083e-07
4.08898e-07
4.68154e-07
5.30061e-07
5.80912e-07
4.88751e-07
5.05825e-07
6.55166e-07
6.60743e-07
3.55548e-07
3.45106e-07
-2.76353e-08
-2.40064e-08
-4.88822e-08
-4.22105e-08
-4.79677e-08
-4.2605e-08
-1.02702e-07
-1.12121e-07
-3.74087e-08
-3.10778e-08
-7.46175e-08
-7.23502e-08
4.33799e-08
3.35439e-08
4.56978e-08
5.33795e-08
9.77255e-09
2.48845e-08
7.88132e-08
7.94238e-08
6.62864e-08
6.16102e-08
9.77527e-08
1.06121e-07
1.05995e-07
9.34123e-08
1.53538e-07
1.58451e-07
1.32363e-07
1.25117e-07
1.80189e-07
1.79584e-07
2.55336e-07
2.52522e-07
2.22925e-07
2.26938e-07
2.25122e-07
2.08575e-07
8.59483e-08
8.39436e-08
7.88256e-08
7.88639e-08
1.04088e-07
1.099e-07
2.58098e-09
2.59242e-09
2.05524e-09
2.08072e-09
2.11886e-09
2.1311e-09
2.05024e-09
2.01535e-09
2.1302e-09
2.1488e-09
3.76111e-09
3.82598e-09
3.3205e-09
3.20926e-09
2.68148e-09
2.54055e-09
2.48847e-09
2.40978e-09
2.30485e-09
2.41821e-09
1.70551e-09
1.78497e-09
1.40963e-09
1.38371e-09
1.92361e-09
1.89497e-09
1.52895e-09
1.47745e-09
1.10409e-09
1.06416e-09
9.49362e-10
9.12009e-10
1.0537e-09
1.02734e-09
1.05857e-09
1.09207e-09
1.12365e-09
1.06498e-09
8.58169e-10
8.19655e-10
1.13288e-09
1.17944e-09
1.12565e-09
1.09366e-09
6.29916e-10
6.08977e-10
5.76265e-10
5.52386e-10
6.44355e-10
6.70566e-10
6.41153e-10
6.62916e-10
4.99793e-10
5.25908e-10
7.41137e-10
7.68922e-10
6.28618e-10
6.04615e-10
1.34287e-10
1.51996e-10
2.81683e-10
2.88324e-10
2.99721e-10
2.91942e-10
3.15048e-10
3.15091e-10
3.72895e-10
3.27733e-10
3.34482e-10
3.32911e-10
7.90467e-10
7.71715e-10
9.56511e-10
9.42093e-10
8.25516e-10
8.17287e-10
6.7757e-10
6.82268e-10
6.8003e-10
6.86105e-10
5.04868e-10
4.98586e-10
2.72186e-10
2.4765e-10
1.56009e-07
1.85234e-07
-1.53439e-09
7.49961e-09
1.44325e-07
1.62566e-07
1.36529e-08
-2.44861e-08
1.01842e-07
1.39701e-08
1.46395e-07
6.01116e-08
6.3995e-08
9.70858e-07
1.11651e-06
-7.15794e-08
-5.86938e-08
-8.94507e-08
-3.59827e-08
-4.26338e-08
-1.75583e-08
-3.67615e-08
1.74798e-07
-1.16561e-08
1.06158e-07
-2.23189e-08
-3.29354e-08
-8.27412e-08
-7.63008e-08
-1.98392e-08
-1.45365e-08
4.19639e-09
5.41701e-09
-2.46978e-10
-2.53356e-10
-4.16625e-10
-3.84963e-10
1.43097e-10
1.61877e-10
-1.31185e-10
-1.38953e-10
-1.85856e-10
-1.79838e-10
-7.92668e-11
-4.5121e-11
-5.55725e-12
4.08006e-12
2.82967e-08
3.06695e-08
3.36222e-08
3.64615e-08
3.23206e-09
3.15264e-09
1.0088e-09
7.68769e-10
-2.76317e-10
-1.05023e-09
-1.38821e-09
-1.71666e-09
1.184e-09
7.06779e-10
-1.03194e-09
-5.29099e-10
-5.86172e-09
-4.8787e-09
-1.64461e-08
-1.46068e-08
-1.86985e-08
-2.10373e-08
-3.33876e-08
-3.57255e-08
4.61012e-07
4.27707e-07
5.13972e-07
4.2434e-07
9.97479e-07
1.13519e-06
8.07375e-07
9.00428e-07
4.44987e-07
4.18172e-07
3.83216e-07
3.8935e-07
3.01744e-07
3.35786e-07
2.68167e-07
3.02412e-07
-5.69173e-08
-2.08828e-08
1.91831e-08
5.10773e-08
9.63053e-08
1.59674e-07
1.56032e-07
5.57331e-08
6.07095e-08
3.85959e-07
3.37007e-07
1.15511e-06
9.94233e-07
1.46324e-06
1.67828e-06
1.32194e-07
1.36407e-07
1.81765e-07
1.75609e-07
1.04279e-06
1.15163e-06
5.38549e-07
6.08739e-07
8.13349e-07
6.7731e-07
7.53492e-08
7.86306e-08
-1.01592e-08
1.56429e-07
1.08644e-07
2.57818e-07
1.97874e-07
8.74306e-08
1.29538e-08
1.20832e-07
1.17349e-07
-5.08641e-08
-7.71762e-08
-8.52122e-08
-9.45452e-08
1.66913e-07
1.98125e-07
9.46029e-08
6.82166e-08
8.89476e-08
1.07737e-08
-4.82577e-08
-4.89691e-09
-3.04697e-08
-2.54918e-08
1.21504e-06
8.59977e-07
9.52519e-07
7.82845e-07
1.19711e-06
1.20881e-06
1.85018e-06
2.12407e-06
1.80779e-06
9.52815e-07
9.54655e-07
1.19252e-06
1.16173e-06
4.43282e-07
4.54945e-07
2.91668e-07
3.24451e-07
3.32085e-07
3.67635e-07
5.12952e-07
4.53368e-07
5.68655e-07
5.48337e-07
-2.1759e-08
-1.85601e-08
-2.95347e-08
-3.32447e-08
-3.65802e-08
-3.17725e-08
-7.45209e-08
-6.72143e-08
-9.27947e-08
-1.22564e-07
-1.01348e-07
-1.08743e-07
-1.05733e-07
-6.98671e-08
-8.4562e-08
-5.53977e-08
4.05649e-08
3.16903e-08
8.53222e-08
8.66476e-08
6.75034e-08
7.25097e-08
6.76789e-08
6.07176e-08
1.18016e-07
1.28691e-07
9.66488e-08
8.55154e-08
1.70737e-07
1.76499e-07
1.81226e-07
1.80106e-07
2.2771e-07
2.2543e-07
2.49339e-07
2.31085e-07
9.49503e-08
9.27233e-08
4.03384e-09
3.89679e-09
2.12145e-09
2.08915e-09
1.8793e-09
1.84287e-09
2.05252e-09
2.03553e-09
2.09557e-09
2.09736e-09
1.99907e-09
2.01581e-09
1.7472e-09
1.75693e-09
2.57739e-09
2.4802e-09
3.27717e-09
3.18582e-09
2.93814e-09
3.03054e-09
3.01687e-09
3.20336e-09
2.41588e-09
2.53551e-09
2.62365e-09
2.77089e-09
2.55544e-09
2.32304e-09
2.43708e-09
2.19791e-09
2.06577e-09
1.9713e-09
1.63523e-09
1.56129e-09
1.0329e-09
1.00339e-09
1.41388e-09
1.45205e-09
1.77458e-09
1.79689e-09
1.72043e-09
1.6962e-09
1.74108e-09
1.72954e-09
1.63504e-09
1.6899e-09
1.18023e-09
1.21254e-09
1.00079e-09
9.62885e-10
8.05486e-10
7.69048e-10
8.95514e-10
8.68106e-10
1.07067e-09
9.14553e-10
1.22721e-09
1.20232e-09
1.0026e-09
9.54992e-10
1.04368e-09
9.94433e-10
7.57284e-10
7.23685e-10
5.81003e-10
6.10573e-10
6.45216e-10
6.22269e-10
5.92239e-10
6.14352e-10
5.24682e-10
5.01998e-10
4.25856e-10
4.47324e-10
8.3518e-10
8.16165e-10
7.38241e-10
7.63256e-10
5.59894e-10
5.7942e-10
6.61175e-10
2.59529e-10
2.53459e-10
3.95377e-10
4.0305e-10
3.78948e-10
3.85984e-10
3.23061e-10
3.31114e-10
3.09645e-10
3.11296e-10
3.0991e-10
3.09301e-10
3.18837e-10
3.19843e-10
3.28787e-10
3.26306e-10
3.41669e-10
3.45595e-10
3.78817e-10
3.31735e-10
1.42396e-09
1.46012e-09
8.94358e-10
8.96489e-10
7.58773e-10
7.61065e-10
7.38049e-10
7.2141e-10
6.50494e-10
6.56499e-10
6.92984e-10
6.97644e-10
5.55982e-10
5.51409e-10
4.38682e-10
4.40633e-10
2.91256e-10
3.61718e-10
-7.04683e-08
-8.28189e-08
2.41256e-08
3.22686e-08
-4.1038e-08
3.72185e-08
3.60896e-08
1.9943e-08
-1.57411e-08
7.57488e-08
-2.64902e-08
2.76621e-07
-2.91348e-09
-2.02561e-09
1.29967e-07
1.22267e-07
8.48428e-07
8.63601e-07
2.70391e-07
3.07779e-07
-6.50659e-08
-6.41681e-08
4.21377e-08
5.18471e-08
-2.22431e-08
-6.70888e-09
8.32871e-09
6.5082e-08
1.26471e-07
2.60683e-08
-3.21434e-08
-6.45954e-08
-8.37921e-08
-2.16441e-08
-4.75574e-08
-9.88753e-08
-7.95558e-09
-7.83623e-09
3.0097e-09
3.62301e-09
1.0829e-09
5.06551e-12
-3.54182e-10
-3.51103e-10
-3.38201e-10
-3.33056e-10
-4.38082e-10
-4.04056e-10
1.5184e-10
1.57134e-10
-1.17e-10
-1.094e-10
-1.45075e-10
-1.3939e-10
-1.94265e-10
-2.00242e-10
-1.91635e-10
-1.97086e-10
-1.16793e-10
-1.23568e-10
4.34858e-12
3.91232e-11
1.51561e-11
5.69557e-12
1.82426e-10
1.93685e-10
4.5184e-08
4.90974e-08
3.9202e-08
4.24996e-08
4.86442e-09
4.73814e-09
6.4691e-09
6.17839e-09
2.87693e-09
-2.69809e-09
-5.01252e-10
-2.39342e-09
-2.04298e-09
2.41469e-08
2.2425e-08
-3.79765e-09
-2.97718e-09
-9.31415e-11
3.19639e-10
-4.58731e-09
-3.73031e-09
-8.38982e-09
-9.72404e-09
-2.14436e-08
-1.90022e-08
-1.87962e-08
-1.67809e-08
-2.51404e-08
-2.30211e-08
-1.16721e-07
-1.29369e-07
4.9362e-07
4.77237e-07
4.75375e-07
3.86192e-07
8.85382e-07
8.8138e-07
9.95945e-07
1.11118e-06
3.97416e-07
3.72854e-07
5.34604e-07
5.41949e-07
2.80107e-07
2.77534e-07
-1.21473e-07
-1.36903e-07
-5.47553e-08
1.37399e-07
1.44918e-06
1.53443e-06
1.49954e-07
1.45227e-07
1.25739e-06
5.47006e-07
4.94327e-07
7.6123e-07
5.56532e-07
1.70216e-08
4.12116e-08
1.18087e-07
3.01404e-07
2.30674e-07
1.96222e-07
5.08152e-08
-3.52965e-09
-2.48006e-08
-1.12771e-07
-1.16192e-07
-1.31334e-07
1.72225e-07
2.21156e-07
6.72517e-08
6.44061e-08
1.26605e-08
3.9141e-08
-2.93841e-08
5.65149e-07
4.55753e-07
3.97632e-07
7.35865e-07
7.49333e-07
7.97336e-07
8.46742e-07
9.83773e-07
8.53954e-07
1.51829e-06
1.52148e-06
1.88123e-06
1.84196e-06
8.42872e-07
8.40518e-07
1.03159e-06
1.05911e-06
3.98494e-07
4.24284e-07
3.45887e-07
3.57039e-07
4.21659e-07
3.76629e-07
-2.08201e-08
-1.6749e-08
-8.56365e-09
-6.4559e-09
-1.59055e-08
-2.08564e-08
-2.53878e-08
-4.87601e-08
-5.55751e-08
-6.8892e-08
-7.33506e-08
-1.24001e-07
-1.20951e-07
-9.38974e-08
-3.64072e-08
-4.6966e-08
-7.11497e-08
1.13515e-07
1.19791e-07
9.29821e-08
9.51068e-08
5.6656e-08
5.11586e-08
1.2986e-07
1.41939e-07
1.62379e-07
1.61485e-07
2.1192e-07
2.19689e-07
1.99269e-09
2.04989e-09
7.68729e-09
7.38892e-09
2.03666e-09
2.08431e-09
4.2674e-09
4.38827e-09
2.38326e-09
2.33607e-09
2.0086e-09
1.99299e-09
2.07604e-09
2.07328e-09
2.10623e-09
2.09388e-09
2.09313e-09
1.94255e-09
1.89168e-09
1.87348e-09
1.86775e-09
1.82201e-09
1.76813e-09
2.25503e-09
2.27882e-09
3.13502e-09
3.25784e-09
3.58943e-09
3.57534e-09
3.57507e-09
3.63202e-09
3.5403e-09
3.7759e-09
3.41163e-09
2.61537e-09
2.66588e-09
2.69504e-09
2.84642e-09
2.32514e-09
2.43387e-09
2.13506e-09
2.16248e-09
1.5258e-09
1.5952e-09
1.60997e-09
1.68752e-09
1.16931e-09
1.13929e-09
1.42994e-09
1.39326e-09
1.66867e-09
1.62733e-09
1.75183e-09
2.02886e-09
1.99936e-09
1.39585e-09
1.35045e-09
1.43218e-09
1.45589e-09
1.60084e-09
1.61611e-09
1.15895e-09
1.11951e-09
1.27352e-09
1.23941e-09
9.89524e-10
1.04095e-09
8.52487e-10
8.16089e-10
8.44221e-10
9.01621e-10
9.31649e-10
1.03475e-09
9.9748e-10
1.15462e-09
1.10806e-09
9.26022e-10
9.57288e-10
1.05094e-09
1.08413e-09
8.98777e-10
9.46284e-10
6.75403e-10
6.48461e-10
6.60707e-10
5.6785e-10
5.45619e-10
6.97505e-10
7.25425e-10
6.40714e-10
5.29839e-10
5.49762e-10
4.71124e-10
4.93386e-10
4.7202e-10
1.11727e-09
1.0969e-09
7.6429e-10
7.90443e-10
6.66612e-10
6.98611e-10
6.12039e-10
6.34216e-10
4.74478e-10
4.6424e-10
3.77236e-10
3.87736e-10
4.54281e-10
3.26195e-10
2.69735e-10
3.8914e-10
3.96953e-10
2.92608e-10
2.94156e-10
3.0187e-10
3.03774e-10
3.15657e-10
3.07797e-10
3.16377e-10
3.15692e-10
3.22754e-10
3.24463e-10
3.23425e-10
3.20817e-10
3.40408e-10
3.36754e-10
3.37175e-10
3.40093e-10
3.48316e-10
3.44648e-10
1.27557e-09
1.24291e-09
9.90524e-10
9.65467e-10
8.62029e-10
8.66958e-10
9.20245e-10
9.26475e-10
9.53017e-10
9.6998e-10
7.98581e-10
8.06397e-10
7.35012e-10
7.27402e-10
7.13451e-10
7.32313e-10
6.62457e-10
6.66968e-10
5.93932e-10
5.83576e-10
5.47862e-10
5.43321e-10
3.43048e-10
3.42835e-10
2.89243e-10
4.50632e-10
3.35816e-10
2.0342e-09
2.07983e-09
6.22547e-07
5.48993e-07
4.07672e-08
1.52401e-07
1.02014e-07
4.31462e-08
1.14855e-09
1.00176e-07
1.38097e-07
2.51918e-08
-2.80229e-08
-1.89166e-07
3.21633e-09
2.83318e-09
7.22863e-08
6.77675e-08
3.17722e-07
2.80351e-07
7.09955e-07
7.1626e-07
9.68262e-07
1.07191e-06
6.67316e-07
7.12132e-07
1.91311e-07
1.14477e-07
-7.78474e-09
9.30078e-09
4.21256e-08
6.14559e-08
-5.25531e-08
-4.44718e-08
-3.59261e-08
1.38635e-07
5.77364e-08
1.87504e-08
1.64388e-07
2.06744e-07
1.15915e-08
-1.85996e-08
-3.79289e-08
4.0649e-07
3.55968e-07
3.36721e-07
-2.2023e-08
-2.10632e-08
-2.02243e-08
9.06281e-09
7.23189e-09
3.21058e-10
3.26876e-10
-5.78792e-10
-5.76739e-10
-2.92276e-10
-3.00658e-10
-1.92755e-10
-1.92866e-10
-3.27676e-10
-3.23687e-10
-4.58845e-10
-4.22814e-10
-3.00149e-10
-3.0465e-10
1.39077e-10
1.34193e-10
-1.73716e-10
-1.78451e-10
-1.4659e-10
-1.39982e-10
-1.50725e-10
-1.4582e-10
-1.86182e-10
-1.93469e-10
-1.66516e-10
-1.60185e-10
-1.83548e-10
-1.92566e-10
-1.55946e-10
-1.71627e-10
-1.15095e-11
-3.32105e-12
6.37289e-11
9.08427e-11
-1.93386e-11
-2.2286e-11
-2.78737e-11
5.94199e-12
1.22069e-11
3.39917e-11
3.0147e-10
2.76547e-10
3.85455e-08
4.18099e-08
3.3257e-08
3.07915e-08
5.22719e-09
5.39908e-09
5.95725e-09
6.22355e-09
2.27433e-09
2.97945e-09
1.88667e-09
1.47296e-09
-1.55977e-09
-1.08271e-09
1.77674e-08
1.65629e-08
-1.30314e-08
-1.65702e-08
1.14543e-09
1.43067e-09
-1.65011e-09
-2.29882e-09
-5.33786e-09
-4.40392e-09
-1.12026e-08
-1.28016e-08
-2.8168e-08
-3.13043e-08
-1.50559e-08
-1.32956e-08
-2.315e-08
-2.10234e-08
-2.05348e-08
-1.82657e-08
1.13526e-08
1.10888e-08
5.87747e-07
6.73689e-07
7.03229e-07
4.15881e-07
3.73886e-07
7.91171e-07
7.80468e-07
4.15766e-07
-9.21384e-08
1.41164e-08
1.18347e-08
1.05084e-06
9.68459e-07
1.22664e-06
4.89917e-07
4.47867e-07
1.75928e-07
1.40138e-07
2.78638e-07
2.45827e-07
2.64482e-07
1.36061e-07
-3.52229e-08
-1.20403e-07
-1.32518e-07
-4.90255e-08
-7.42956e-08
-1.70278e-07
1.44759e-07
1.78865e-07
1.92755e-09
-6.29373e-09
3.94966e-07
2.6557e-07
4.49489e-07
5.26925e-07
4.10534e-07
9.39194e-07
1.14328e-06
8.88129e-07
9.19129e-07
8.71503e-07
7.62974e-07
1.3554e-06
1.36101e-06
1.6514e-06
1.69935e-06
8.12646e-07
8.33214e-07
1.07377e-06
1.07763e-06
3.74083e-07
3.49037e-07
-2.53087e-08
-2.95979e-08
-4.8659e-09
-1.05565e-08
-2.89503e-08
-3.297e-08
-5.7056e-08
-6.32819e-08
-1.09635e-07
-1.02809e-07
-2.53913e-08
1.08414e-07
1.02797e-07
1.24788e-07
1.28365e-07
7.39686e-08
7.96575e-08
2.00699e-07
1.94383e-07
-8.46441e-09
-9.75776e-09
2.30126e-08
2.25422e-08
7.53398e-09
7.35569e-09
1.89127e-09
1.86693e-09
2.176e-09
2.17258e-09
4.15992e-09
4.29695e-09
2.18533e-09
2.18654e-09
2.72223e-09
2.76382e-09
1.88415e-09
1.85577e-09
2.00521e-09
2.03139e-09
2.05275e-09
2.03165e-09
2.07432e-09
2.06522e-09
2.08434e-09
2.0703e-09
1.87024e-09
1.80757e-09
1.93421e-09
1.93219e-09
1.81386e-09
1.80558e-09
2.11491e-09
2.14689e-09
2.88073e-09
2.96618e-09
3.00795e-09
3.11312e-09
3.52861e-09
3.6704e-09
2.92214e-09
2.85013e-09
3.90751e-09
4.0023e-09
3.48172e-09
3.54199e-09
3.64957e-09
3.42175e-09
2.48644e-09
2.36605e-09
2.21545e-09
2.22482e-09
2.14785e-09
2.25391e-09
1.55499e-09
1.48603e-09
1.66092e-09
1.73918e-09
1.01229e-09
9.81314e-10
1.1291e-09
1.09915e-09
1.40587e-09
1.36943e-09
1.72739e-09
1.7494e-09
1.91228e-09
1.93867e-09
1.96547e-09
1.99474e-09
1.7072e-09
1.66766e-09
1.6801e-09
1.69392e-09
1.50867e-09
1.48523e-09
1.71613e-09
1.70375e-09
1.56169e-09
1.53208e-09
1.13e-09
1.16526e-09
1.13436e-09
1.16864e-09
1.02854e-09
1.0661e-09
1.09254e-09
1.05205e-09
8.8241e-10
9.20079e-10
9.00233e-10
8.62819e-10
8.22826e-10
8.51131e-10
9.05206e-10
8.75902e-10
1.03518e-09
9.70153e-10
1.30331e-09
1.28234e-09
9.47064e-10
9.01401e-10
9.18965e-10
8.84551e-10
7.89919e-10
8.28756e-10
9.36367e-10
9.83717e-10
7.12926e-10
6.83462e-10
5.23442e-10
5.00297e-10
7.27497e-10
7.57428e-10
5.42923e-10
5.69657e-10
5.52717e-10
5.69574e-10
5.1768e-10
4.98056e-10
8.19742e-10
8.00716e-10
6.41119e-10
6.2069e-10
7.13854e-10
7.40533e-10
5.46518e-10
6.81411e-10
6.02998e-10
5.8201e-10
2.42959e-10
2.37089e-10
1.88333e-10
1.86647e-10
2.88069e-10
2.93562e-10
4.13928e-10
4.23439e-10
3.98376e-10
4.06795e-10
3.76041e-10
3.8166e-10
3.37733e-10
3.40352e-10
3.04069e-10
3.02873e-10
3.11285e-10
3.14072e-10
3.04414e-10
3.02589e-10
3.64671e-10
3.24938e-10
3.26243e-10
3.28789e-10
3.5292e-10
3.57251e-10
3.45746e-10
3.5033e-10
3.82777e-10
3.34614e-10
3.85328e-10
3.36589e-10
1.36748e-09
1.37125e-09
1.25115e-09
1.28313e-09
9.80699e-10
1.00626e-09
8.72182e-10
8.75139e-10
9.82711e-10
9.74366e-10
9.71744e-10
9.81817e-10
7.79895e-10
7.86326e-10
7.78165e-10
7.95592e-10
7.02569e-10
7.18695e-10
7.16139e-10
7.05308e-10
6.7107e-10
6.64794e-10
6.15746e-10
5.69589e-10
5.2503e-10
5.31742e-10
4.29608e-10
4.37813e-10
4.72002e-10
4.67657e-10
3.55348e-10
3.59294e-10
3.35098e-10
2.17944e-09
-4.99445e-10
-1.24752e-07
-1.30475e-07
5.09743e-07
4.45773e-07
-6.77182e-08
-9.68817e-08
1.59124e-07
1.06079e-07
2.05608e-08
8.23865e-08
1.72661e-07
2.06644e-07
2.15756e-07
2.15169e-07
5.1072e-08
1.009e-07
2.18046e-07
2.75011e-07
-4.66344e-08
-4.22732e-08
1.79974e-08
2.10382e-08
4.60689e-08
6.55283e-08
1.24885e-07
1.10747e-07
3.02644e-07
3.41974e-07
6.3574e-07
6.3695e-07
6.50516e-07
6.79451e-07
9.82547e-07
1.08485e-06
6.34927e-07
5.97375e-07
1.07044e-06
1.01203e-06
2.17201e-07
1.52156e-07
2.96449e-08
7.01089e-09
-4.30526e-09
5.1894e-08
-2.93189e-08
-1.17919e-08
2.45925e-08
7.01224e-08
9.16998e-08
1.33962e-07