/*--------------------------------*- C++ -*----------------------------------*\
  =========                 |
  \\      /  F ield         | OpenFOAM: The Open Source CFD Toolbox
   \\    /   O peration     | Website:  https://openfoam.org
    \\  /    A nd           | Version:  7
     \\/     M anipulation  |
\*---------------------------------------------------------------------------*/
FoamFile
{
    version     2.0;
    format      ascii;
    class       volScalarField;
    location    "480";
    object      T;
}
// * * * * * * * * * * * * * * * * * * * * * * * * * * * * * * * * * * * * * //

dimensions      [0 0 0 1 0 0 0];

internalField   nonuniform List<scalar> 
238806
(
0.833256
0.851209
0.478885
0.604206
0.551184
0.851812
0.825272
0.872454
0.865718
0.651124
0.692959
0.569978
0.865547
0.875414
0.373602
0.397854
0.623017
0.645086
0.883988
0.880141
0.873503
0.866974
0.468721
0.475641
0.482781
0.515916
0.545341
0.502892
0.516724
0.460334
0.856616
0.850901
0.738872
0.771822
0.829295
0.830056
1.74814e-05
1.06144e-05
0.705468
0.762141
0.746696
0.560578
0.832117
0.831964
0.882515
0.882333
0.589794
0.619416
0.796611
0.815416
0.867278
0.85257
0.868594
0.877926
0.423437
0.402611
0.628987
0.607913
0.676202
0.579202
0.622704
0.597925
0.72757
0.761156
0.776634
0.859879
0.883612
0.860319
0.827039
0.873425
0.878266
0.796666
0.773106
0.824113
0.806605
0.875736
0.87608
0.832058
0.83308
0.749799
0.75096
0.773638
0.800561
0.833871
0.860369
0.867342
0.871139
0.492711
0.485785
0.50987
0.509032
0.692187
0.707607
0.832708
0.764673
0.824237
0.825154
0.714576
0.663656
0.532488
0.881409
0.89774
0.888615
0.86767
0.849657
0.851288
0.840406
0.837729
0.822182
0.785798
0.757583
0.866688
0.879264
0.850145
0.863505
0.852267
0.855419
-2.25978e-05
-1.46017e-05
-1.5866e-05
0.227438
0.159299
0.856651
0.833309
0.853888
0.826595
0.447786
0.317686
0.521035
0.501102
0.73721
0.580344
0.541022
0.54589
0.542427
0.645174
0.864909
0.864282
0.286766
0.409543
0.451506
0.465482
0.757053
0.756549
0.662134
0.8972
0.881397
0.891857
0.897053
0.895595
0.884988
0.893228
0.892187
0.815031
0.800627
0.853056
0.840019
0.805729
0.785806
0.873944
0.868885
0.872555
0.875843
0.878034
0.890595
0.849474
0.851656
0.756859
0.763902
0.000254401
0.000183283
0.785541
0.809289
0.121885
0.138485
0.0636302
0.858099
0.833633
0.858367
0.870536
0.403093
0.260135
0.555496
0.537547
0.529757
0.580054
0.567594
0.579927
0.831018
0.831714
0.872898
0.872957
0.715395
0.649756
0.637464
0.612373
0.678081
0.492922
0.471228
0.526783
0.496864
0.822938
0.860335
0.845536
0.802182
0.853249
0.814836
0.853459
0.856907
0.88775
0.895682
0.530866
0.50776
0.791442
0.774276
0.76355
0.785941
0.657269
0.702637
0.814833
0.831311
0.878814
0.870669
0.874399
0.881345
0.888801
0.876442
0.836853
0.838058
0.75582
0.758666
0.645074
0.653183
0.575445
0.583942
0.241955
0.227762
0.866197
0.862283
0.592818
0.599796
0.10558
0.0400878
0.696461
0.695951
0.855814
0.838855
0.87429
0.862241
0.880203
0.878906
0.814213
0.822475
0.674672
0.636701
0.605617
0.610511
0.68589
0.690169
0.759397
0.75953
0.871555
0.872653
0.83039
0.821664
0.844935
0.838039
0.717103
0.737905
0.604127
0.575116
0.7254
0.521176
0.499461
0.585685
0.530318
0.858518
0.820898
0.893664
0.871407
0.885509
0.897915
0.876115
0.872342
0.847113
0.836213
0.866521
0.886628
0.728844
0.742794
0.602557
0.579273
0.797478
0.781736
0.765092
0.740544
0.760936
0.730133
0.724
0.683071
0.813335
0.795931
0.849831
0.858044
0.860965
0.847238
0.845852
0.857357
0.878804
0.87566
0.838456
0.829629
0.847309
0.835556
0.886291
0.884392
0.367573
0.367334
0.740972
0.744093
0.678612
0.673189
0.746467
0.745171
0.505915
0.497469
0.223597
0.237481
-1.44688e-05
0.796143
0.819267
0.308957
0.388838
0.251832
0.239829
0.875623
0.877322
0.337191
0.334752
0.75941
0.637764
0.855213
0.828585
0.872416
0.860343
0.878659
0.86865
0.432689
0.509219
0.476147
0.492553
0.568626
0.558901
0.515197
0.567867
0.862508
0.858356
0.871045
0.831928
0.831544
0.833165
0.823365
0.73843
0.798144
0.63318
0.724852
0.463746
0.470183
0.374686
0.761506
0.776524
0.556849
0.612922
0.587633
0.504168
0.56655
0.509998
0.800511
0.748592
0.670389
0.74983
0.863126
0.884182
0.824455
0.764198
0.83529
0.779015
0.846543
0.841842
0.832689
0.825896
0.849484
0.866351
0.878996
0.895498
0.835399
0.844328
0.895195
0.889754
0.88731
0.889204
0.538613
0.561117
0.858485
0.866401
0.8026
0.787919
0.775711
0.75415
0.716833
0.682768
0.6455
0.613737
0.820104
0.804351
0.86069
0.850271
0.865226
0.852455
0.860254
0.84792
0.883343
0.885607
0.830158
0.831089
0.845138
0.834184
0.888067
0.696212
0.70003
0.760548
0.763126
0.726984
0.722599
0.740965
0.744307
0.645672
0.63775
0.645484
0.652514
0.516209
0.506953
0.0318588
0.0231242
0.44323
0.452988
0.614038
0.657252
0.642353
0.706971
0.727313
0.0444303
0.172264
0.293582
0.237231
0.43618
0.415194
0.817906
0.819476
0.425747
0.430979
0.0442028
-0.00509567
0.227281
0.035197
0.590281
0.743943
0.881276
0.878448
0.845819
0.822385
0.881276
0.83829
0.846751
0.844239
0.516067
0.495022
0.51575
0.458226
0.558534
0.626482
0.561516
0.833869
0.768164
0.884256
0.864904
0.885498
0.885657
0.827783
0.819951
0.846467
0.84428
0.836269
0.834662
0.816301
0.82191
0.74998
0.779569
0.47824
0.61526
0.642662
0.553912
0.336917
0.475523
0.472388
0.43415
0.552828
0.592106
0.774508
0.760121
0.771447
0.704133
0.85798
0.821736
0.8806
0.880525
0.888039
0.860151
0.876814
0.895759
0.859638
0.862766
0.8705
0.872216
0.882304
0.884012
0.84558
0.835835
0.893641
0.876788
0.842504
0.834412
0.884258
0.864254
0.892731
0.891932
0.602588
0.586917
0.309561
0.426025
0.84911
0.860229
0.836863
0.848377
0.81152
0.824547
0.793791
0.809323
0.784373
0.765304
0.73608
0.704688
0.670341
0.636155
0.834659
0.848544
0.826164
0.811542
0.844449
0.836489
0.87511
0.87305
0.868526
0.857086
0.835152
0.850788
0.840639
0.850179
0.858476
0.841047
0.890883
0.892257
0.890576
0.889654
0.828487
0.827632
0.8824
0.880231
0.0959486
0.0907125
0.21956
0.223877
0.747588
0.750319
0.753064
0.760105
0.675742
0.680923
0.558934
0.554756
0.53866
0.487854
0.585862
0.574794
0.515285
0.524438
0.00611337
0.00523715
2.86311e-05
1.77967e-05
0.301677
0.307423
0.16636
0.179125
0.541797
0.498561
0.634895
0.537245
0.656529
0.675896
0.759131
0.729835
0.65382
0.678576
0.416584
0.481738
0.511852
0.503061
0.00173013
0.00143977
0.657654
0.615711
0.722736
0.722913
0.00805792
0.0097093
0.0618605
0.0421137
-0.00808407
-0.0063417
0.767393
0.674501
0.777731
0.775594
0.879023
0.876144
0.868842
0.869948
0.847353
0.82308
0.848727
0.842834
0.82881
0.840264
0.389737
0.195481
0.763448
0.777373
0.67936
0.617788
0.573452
0.530306
0.578193
0.834492
0.773895
0.714748
0.725751
0.885267
0.866002
0.863826
0.864236
0.826514
0.819065
0.867786
0.864804
0.831751
0.822503
0.861424
0.852713
0.810959
0.807309
0.522271
0.5091
0.512852
0.540582
0.692461
0.721558
0.587836
0.455795
0.686135
0.791994
0.803713
0.630012
0.587375
0.411087
0.570662
0.807943
0.818828
0.748437
0.666872
0.88391
0.861804
0.811557
0.743454
0.876919
0.872121
0.879673
0.861226
0.838878
0.835257
0.827151
0.864872
0.863317
0.885347
0.885805
0.893701
0.875399
0.847837
0.866161
0.879851
0.860698
0.843313
0.834937
0.882052
0.885014
0.716922
0.700456
0.611471
0.63008
0.440998
0.387753
0.581995
0.552183
0.817768
0.831633
0.852803
0.862858
0.832862
0.84497
0.82855
0.815981
0.785616
0.802756
0.752179
0.72422
0.694834
0.65967
0.828704
0.84342
0.8633
0.85329
0.873957
0.870173
0.877644
0.875149
0.856054
0.841604
0.869424
0.874991
0.831923
0.836651
0.893045
0.884177
0.889012
0.874006
0.876613
0.826747
0.829259
0.879013
0.881213
0.871461
0.874171
0.846084
0.843442
0.00517799
0.0342547
0.0165812
0.01614
0.77549
0.772781
0.747539
0.743593
0.722475
0.726563
0.751168
0.754387
0.630977
0.623504
0.552127
0.503313
0.652132
0.640591
0.618734
0.625202
0.680116
0.686177
0.630436
0.637735
0.534061
0.525238
0.099374
0.107291
0.0128444
0.0150917
0.00384681
0.00329364
-1.95179e-05
-1.38742e-05
0.00246397
0.00183005
0.294677
0.289618
-1.07578e-05
-1.17674e-05
-1.17486e-05
0.66908
0.629723
0.730251
0.736492
0.757533
0.859894
0.859155
0.660194
0.680171
0.638373
0.660959
0.800959
0.815191
0.74832
0.773194
0.506669
0.466015
0.490658
0.517056
0.837692
0.835131
0.231833
0.217586
0.474729
0.466289
0.343843
0.324849
0.0167227
0.00806161
0.842242
0.844314
0.813856
0.816043
0.764855
0.765211
0.72285
0.722547
0.329874
0.328233
0.12296
0.249938
0.166706
0.249451
0.253209
0.761758
0.748684
0.746922
0.583917
0.855102
0.85081
0.832394
0.873181
0.881512
0.870299
0.881382
0.878674
0.820958
0.841236
0.836557
0.863081
0.811902
0.80094
0.520636
0.485058
0.790187
0.799501
0.566681
0.639259
0.554561
0.523934
0.773281
0.835568
0.562594
0.580722
0.828088
0.824686
0.885387
0.885555
0.829071
0.820806
0.861904
0.859118
0.775166
0.821355
0.827713
0.834853
0.832713
0.828406
0.541428
0.582116
0.493607
0.419849
0.376705
0.297382
0.731616
0.753784
0.660147
0.679997
0.506915
0.470242
0.677204
0.650329
0.519375
0.594053
0.519549
0.52346
0.85894
0.827079
0.753425
0.681834
0.866008
0.891086
0.84299
0.855191
0.875179
0.86774
0.864363
0.848981
0.848233
0.836739
0.851362
0.881997
0.89514
0.841864
0.833904
0.891351
0.89442
0.617442
0.633204
0.569834
0.551347
0.431191
0.479932
0.592813
0.615824
0.551275
0.844844
0.856961
0.867416
0.860529
0.806424
0.820052
0.795178
0.775827
0.707977
0.743874
0.846233
0.83778
0.87313
0.871359
0.871554
0.874234
0.875415
0.876176
0.873431
0.878209
0.866399
0.873676
0.853887
0.83915
0.841317
0.833398
0.841391
0.859454
0.893823
0.892473
0.876094
0.825848
0.828399
0.867891
0.870976
0.858557
0.86168
0.345539
0.227018
0.00407131
0.0322012
0.234816
0.365177
0.227402
0.367455
0.811862
0.814478
0.741958
0.745597
0.725401
0.729194
0.747579
0.743801
0.685985
0.683922
0.429289
0.498097
0.543476
0.493741
0.668931
0.658016
0.574977
0.565384
0.502706
0.445823
0.660835
0.653902
0.678487
0.684651
0.682242
0.688035
0.586988
0.578289
0.60554
0.613602
0.533365
0.542094
0.541073
0.530741
0.0199371
0.0277477
0.00114466
0.00136491
-1.78446e-05
-1.31864e-05
0.0102416
0.0121093
0.160956
0.150939
0.292076
0.303954
0.145818
0.154914
0.136926
0.138676
0.848825
0.841376
0.851641
0.595741
0.558608
0.619257
0.557986
0.490235
0.476289
0.784962
0.781709
0.83602
0.842598
0.618883
0.644174
0.681358
0.701191
0.740789
0.706878
0.38135
0.449757
0.476924
0.468929
0.874502
0.876712
0.833432
0.832455
0.00580739
0.00492362
0.496913
0.47571
0.453515
0.461806
0.44878
0.42766
0.0338469
0.0481158
0.0995362
0.0781553
0.862819
0.866024
0.802307
0.814111
0.809807
0.820435
0.860648
0.862958
0.80645
0.8046
0.696649
0.696588
0.510055
0.511938
0.0185575
0.0266807
0.431207
0.432044
0.173464
0.349726
0.782147
0.790029
0.832292
0.834399
0.879957
0.880325
0.865692
0.867341
0.842848
0.821456
0.793348
0.776113
0.854275
0.876739
0.440647
0.493755
0.460023
0.503551
0.552786
0.762171
0.771188
0.665819
0.705183
0.625392
0.533462
0.572827
0.536425
0.569994
0.573466
0.733163
0.831417
0.830631
0.886252
0.862773
0.879215
0.883055
0.85383
0.840244
0.848789
0.851271
0.783402
0.719571
0.705337
0.725813
0.703087
0.642958
0.590396
0.576206
0.625473
0.522281
0.601926
0.472744
0.767577
0.805778
0.79672
0.768734
0.783566
0.694131
0.717356
0.543053
0.526853
0.626975
0.53984
0.531462
0.883879
0.865228
0.822339
0.857336
0.846318
0.838019
0.85984
0.846047
0.871933
0.882777
0.797251
0.786147
0.860731
0.855386
0.889068
0.86913
0.849004
0.83653
0.862318
0.881961
0.676288
0.69128
0.599146
0.621203
0.581605
0.600266
0.318874
0.223522
0.625165
0.648312
0.544349
0.51824
0.836598
0.823366
0.85593
0.864906
0.748442
0.774724
0.833131
0.839855
0.865568
0.870482
0.875775
0.874349
0.87094
0.861113
0.852362
0.84223
0.863515
0.871977
0.840069
0.856132
0.8329
0.839657
0.858104
0.840912
0.891913
0.891013
0.831219
0.840719
0.824939
0.827626
0.87667
0.864786
0.235556
0.354454
0.23633
0.363886
0.366239
0.366962
0.361213
0.358277
0.72465
0.744622
0.816195
0.812877
0.749169
0.751421
0.739572
0.735467
0.730552
0.731273
0.761457
0.764609
0.70291
0.707255
0.574402
0.568474
0.502126
0.433161
0.730004
0.724767
0.64785
0.64414
0.629438
0.625042
0.664552
0.402719
0.414689
0.426148
0.436665
0.548628
0.664684
0.658055
0.66575
0.672153
0.692099
0.694918
0.582046
0.57527
0.567482
0.559437
0.62068
0.628617
0.619278
0.626908
0.544877
0.553505
0.288023
0.298915
0.588154
0.59449
0.0348886
0.0310573
0.0115772
0.0098199
0.00162406
0.00448906
-3.071e-05
-2.56592e-05
-2.46004e-05
-1.8687e-05
0.00056041
0.000456153
0.189103
0.178122
0.43851
0.445953
0.251825
0.268586
0.134462
0.12616
0.167551
0.15542
0.0699682
0.0726773
-2.54948e-05
-1.72986e-05
0.763526
0.789379
0.604114
0.635927
0.632617
0.668131
0.574454
0.507961
0.610143
0.623942
0.601844
0.858615
0.850316
0.883024
0.884002
0.58801
0.585175
0.591924
0.687762
0.664675
0.678998
0.649435
0.551672
0.490689
0.587555
0.480722
0.480968
0.498611
0.427843
0.710527
0.742729
0.836165
0.838816
0.280056
0.30137
0.0598908
0.050864
0.251166
0.24972
0.269913
0.343861
0.440549
0.448644
0.0377865
0.0545347
0.0707464
0.0906723
0.83683
0.839513
0.865499
0.868285
0.816149
0.804305
0.0198376
0.0215445
0.0329717
0.034231
0.562009
0.492757
0.802424
0.799882
0.745668
0.745533
0.51153
0.509322
0.569326
0.57186
0.0114917
0.0144684
0.354645
0.349973
0.819943
0.829007
0.773738
0.704314
0.884532
0.886224
0.869844
0.868294
0.877334
0.881772
0.844373
0.821909
0.779576
0.809437
0.856586
0.874436
0.583824
0.633735
0.602739
0.724182
0.693472
0.733342
0.782951
0.719433
0.747164
0.596041
0.624107
0.737118
0.738853
0.866137
0.872558
0.848927
0.836544
0.842215
0.856421
0.867303
0.866493
0.88271
0.870949
0.746692
0.76612
0.669411
0.673342
0.675044
0.707289
0.722801
0.716033
0.701144
0.644711
0.67082
0.674252
0.536715
0.487448
0.40885
0.39716
0.338986
0.790528
0.82142
0.803952
0.704167
0.738858
0.63446
0.631943
0.619517
0.553444
0.581772
0.585859
0.511859
0.612807
0.529421
0.884202
0.864259
0.844074
0.843512
0.841427
0.837129
0.848283
0.865688
0.893986
0.861578
0.847224
0.876796
0.875811
0.817405
0.807342
0.878218
0.879904
0.872084
0.89145
0.704467
0.718109
0.647655
0.617016
0.641185
0.659559
0.509161
0.543644
0.407187
0.395952
0.344851
0.215502
0.487398
0.468739
0.481088
0.569819
0.841049
0.828378
0.84116
0.834114
0.871968
0.868033
0.873681
0.870983
0.876318
0.87632
0.872522
0.864383
0.854742
0.84396
0.831385
0.835341
0.832442
0.838112
0.892887
0.890569
0.832732
0.842945
0.759603
0.762805
0.522496
0.452374
0.477391
0.466783
0.0751489
0.0654927
0.0692933
0.0748365
0.175565
0.188241
0.749656
0.740513
0.796299
0.792996
0.813218
0.812657
0.793644
0.796613
0.743305
0.746603
0.738369
0.7416
0.734444
0.738244
0.732878
0.770879
0.774107
0.758174
0.718117
0.713535
0.694208
0.689119
-0.00449598
-0.00482293
0.628172
0.636734
0.689329
0.695884
0.0257929
0.00785737
0.679815
0.703095
0.740086
0.744935
0.705304
0.710098
0.635712
0.631553
0.609803
0.604632
0.54595
0.535693
0.497008
0.547922
0.631936
0.654642
0.665714
0.658944
0.689161
0.683277
0.60302
0.59753
0.567064
0.578425
0.623693
0.615765
0.597471
0.611502
0.551168
0.542701
0.517802
0.527047
0.380722
0.366214
0.48339
0.49431
0.574787
0.567538
0.575192
0.267166
0.25396
0.0233541
0.0268932
0.00279724
0.00344643
0.000185211
0.000186083
-6.82737e-05
-7.75412e-05
-5.10354e-05
-5.93902e-05
-2.96682e-05
-3.65681e-05
3.78374e-05
-2.87492e-05
0.00256753
0.00309778
0.00145886
0.00107304
0.440876
0.450609
0.294099
0.308204
0.187816
0.177416
0.285777
0.271018
0.145578
0.134673
0.144517
0.135824
0.0624791
0.0679272
0.0264378
0.0287208
-1.02189e-05
-7.69981e-06
0.567865
0.517844
0.662026
0.674438
0.672284
0.631043
0.668207
0.594345
0.60229
0.5939
0.458936
0.702536
0.809216
0.816964
0.875611
0.872553
0.882119
0.87833
0.84827
0.869235
0.634855
0.612239
0.803316
0.821552
0.696777
0.722313
0.635365
0.660095
0.695558
0.589558
0.607239
0.584271
0.486391
0.591151
0.619311
0.569511
0.0942696
0.174621
0.872992
0.873261
0.767238
0.770774
0.478146
0.473116
0.125543
0.136018
0.0598053
0.050648
0.226831
0.238211
0.0944872
0.0207154
0.330279
0.256924
0.461161
0.439956
0.384161
0.364089
0.128594
0.186265
0.00571694
0.00472736
0.0674174
0.0516459
0.0192169
0.0168358
0.852982
0.855573
0.8709
0.873341
0.848021
0.846421
0.811334
0.808856
0.0119283
0.0357041
0.0457895
0.498345
0.565949
0.859522
0.857553
0.760859
0.762299
0.765377
0.76534
0.625039
0.624026
0.00506508
0.00547272
0.636861
0.64336
0.435074
0.435614
0.166616
0.15913
0.139666
-0.0203891
0.849963
0.857587
0.783378
0.728116
0.88059
0.881964
0.865364
0.861229
0.875877
0.881683
0.849332
0.824243
0.815564
0.824179
0.317555
0.114166
0.52861
0.7472
0.771182
0.834729
0.83836
0.851332
0.86391
0.843894
0.852721
0.672768
0.694838
0.481555
0.509579
0.507852
0.727043
0.747484
0.714639
0.622069
0.510273
0.412426
0.336155
0.278015
0.138361
0.778243
0.811555
0.680442
0.652633
0.634013
0.668362
0.596773
0.687337
0.69945
0.549099
0.646931
0.857974
0.877328
0.874161
0.780808
0.719619
0.839775
0.845078
0.873558
0.902234
0.836882
0.849272
0.890585
0.861584
0.880313
0.880159
0.857655
0.844552
0.841891
0.848293
0.692969
0.712322
0.754163
0.763555
0.729658
0.704421
0.67687
0.591081
0.568519
0.51266
0.479158
0.0820742
0.138901
0.467982
0.638727
0.607659
0.518898
0.870029
0.860768
0.842757
0.835267
0.872355
0.871365
0.876009
0.87703
0.830757
0.834168
0.889989
0.87629
0.641444
0.63707
0.788775
0.794862
0.673288
0.679651
0.717232
0.721435
0.66373
0.658608
0.0164414
0.0488264
0.110825
0.09765
0.230415
0.232818
0.0798859
0.509192
0.517931
0.7501
0.75873
0.73208
0.726914
0.672735
0.6783
0.805906
0.808622
0.810459
0.813788
0.76449
0.772105
0.752689
0.756165
0.749844
0.737722
0.744679
0.736455
0.739926
0.778001
0.781277
0.73749
0.747817
0.69884
0.703351
0.690927
0.695756
0.164122
0.158865
0.629623
0.62126
0.629041
0.622718
0.677381
0.51312
0.443633
0.592461
0.584528
0.732252
0.730533
0.725166
0.710612
0.6537
0.65022
0.704111
0.692862
0.636833
0.64287
0.616477
0.611583
0.617989
0.355719
0.367301
0.476899
0.46534
0.648044
0.641433
0.628747
0.637377
0.672168
0.659214
0.654592
0.660251
0.589146
0.582859
0.592092
0.598835
0.590229
0.638706
0.645811
0.622907
0.550625
0.558978
0.548341
0.557306
0.536072
0.377034
0.308521
0.439376
0.450465
0.544612
0.51794
0.553545
0.56477
0.157441
0.147299
0.000356986
-0.000490727
0.00214444
0.000791734
0.00107671
0.00698083
0.00835294
0.00836259
0.00713972
0.00192954
0.00229151
-8.77735e-05
0.000239525
-6.57375e-05
-7.83875e-05
-3.40646e-05
-3.99909e-05
-2.3865e-05
-2.12401e-05
0.00096733
0.000821699
0.00130106
0.00158197
0.00813662
0.00682537
0.463734
0.452699
0.472913
0.45955
0.248368
0.265283
0.255469
0.269013
0.366029
0.379319
0.254923
0.238498
0.229964
0.242376
0.0417842
0.0458401
0.124777
0.116843
0.14779
0.149946
0.0745411
0.0812372
0.00351734
0.00390272
-1.14363e-05
-1.08869e-06
-5.92281e-06
0.837626
0.839788
0.875541
0.873353
0.740503
0.768509
0.761558
0.705601
0.47764
0.46171
0.697863
0.524807
0.423898
0.379882
0.789218
0.785597
0.853395
0.861286
0.875234
0.874165
0.861312
0.840294
0.877356
0.875487
0.836394
0.856004
0.56276
0.524377
0.752151
0.774315
0.809947
0.826795
0.613349
0.642445
0.669029
0.734048
0.701044
0.720543
0.697508
0.682763
0.593148
0.608497
0.544891
0.89497
0.889614
0.878417
0.543666
0.614179
0.66926
0.842493
0.840145
0.785422
0.792452
0.742099
0.740486
0.296453
0.227875
0.170125
0.181098
0.153845
0.165587
0.0565627
0.0476878
0.116267
0.107342
0.239672
0.2283
0.579358
0.578036
0.316724
0.244134
0.408611
0.362135
0.473292
0.452049
0.42051
0.409047
0.357335
0.33796
0.0948815
0.0879776
0.00698528
0.00630956
-0.000172053
-0.000141356
0.023602
0.0109269
0.0187302
0.0086413
0.00339931
0.00275422
0.00803981
0.00631541
0.847604
0.850318
0.87377
0.871669
0.847069
0.848968
0.815344
0.817733
0.782417
0.797722
0.713644
0.683081
0.618535
0.6597
0.803447
0.801295
0.737952
0.731229
0.782911
0.782938
0.745547
0.745243
0.575105
0.573666
0.00600372
0.00699868
0.545511
0.536797
0.617061
0.619872
0.433197
0.434158
0.153915
0.14924
0.820438
0.824202
0.831151
0.85359
0.848635
0.792478
0.800961
0.882293
0.882011
0.863998
0.415039
0.829053
0.821306
0.846576
0.826012
0.84294
0.812182
0.770922
0.832821
0.815373
0.668477
0.576757
0.538151
0.676905
0.495033
0.205041
0.060682
0.562972
0.515218
0.288485
0.816076
0.827994
0.607891
0.580953
0.620713
0.647772
0.626894
0.55565
0.539399
0.544283
0.514539
0.865237
0.881005
0.791551
0.735676
0.838784
0.8456
0.90099
0.874725
0.882886
0.854252
0.837443
0.84715
0.878272
0.88254
0.688734
0.670864
0.771259
0.751971
0.662777
0.647163
0.573866
0.543227
0.286426
0.36535
0.671341
0.858159
0.867898
0.848137
0.839157
0.87317
0.869852
0.840663
0.85755
0.700057
0.696916
0.821236
0.829943
0.782495
0.782718
0.700523
0.703531
0.426198
0.352774
0.798048
0.800744
0.466731
0.465079
0.785083
0.788063
0.596869
0.595966
0.238175
0.360474
0.0929165
0.0966093
0.0175306
0.0858534
0.0845813
0.0888718
0.42584
0.437302
0.754706
0.763081
0.745371
0.754255
0.641791
0.648382
0.784455
0.787559
0.796756
0.799626
0.815487
0.817949
0.777431
0.775503
0.807752
0.800883
0.752948
0.757973
0.759044
0.755251
0.734345
0.73084
0.767546
0.774638
0.723457
0.727211
0.693857
0.689142
0.695713
0.700291
0.0229917
0.020181
0.243027
0.23616
0.615728
0.607618
0.683074
0.689567
0.706476
0.713473
0.440336
0.50964
0.328515
0.315528
0.601387
0.557639
0.73554
0.737115
0.721617
0.735529
0.727461
0.716573
0.699963
0.704741
0.68242
0.693836
0.646527
0.657857
0.648776
0.641855
0.628432
0.640417
0.623022
0.618386
0.628452
0.636483
0.431416
0.420267
0.52675
0.515192
0.474345
0.526161
0.677259
0.671071
0.651808
0.644271
0.657428
0.663952
0.666279
0.671944
0.596146
0.59028
0.572434
0.563608
0.643586
0.650644
0.574538
0.582903
0.561977
0.570321
0.566031
0.549867
0.354584
0.34038
0.399105
0.390562
0.472325
0.428399
0.520755
0.495592
0.578155
0.584877
0.25766
0.244872
0.0931326
0.0850877
0.00700291
0.00774201
0.0324328
0.037073
0.0170622
0.0240192
0.00474353
0.0057845
-0.000208233
-0.000244976
0.00272227
0.00324828
0.000299402
0.000371584
0.000189788
0.000148739
0.00085356
0.00063156
5.06308e-05
6.66766e-05
0.00448392
0.00539844
0.00424891
0.00509069
0.00477857
0.00359796
0.00659581
0.00500725
0.532338
0.532331
0.469411
0.480483
0.451894
0.465032
0.281067
0.294924
0.281316
0.277455
0.347912
0.361001
0.241529
0.225581
0.28465
0.299028
0.204005
0.216836
0.251626
0.256396
0.144852
0.156356
0.116216
0.122704
0.0729929
0.0671169
0.0308592
0.0350401
0.00253991
0.000534243
0.00214189
0.00383715
3.46767e-08
0.84134
0.827064
0.252379
0.182726
0.875356
0.879771
0.454438
0.376057
0.822545
0.777425
0.719376
0.746187
0.757331
0.750976
0.750204
0.75636
0.592125
0.620079
0.517477
0.539711
0.650913
0.663704
0.86232
0.858885
0.850545
0.856416
0.871461
0.869823
0.845396
0.846585
0.839584
0.853926
0.881011
0.878962
0.870994
0.870159
0.724597
0.690635
0.859723
0.831928
0.543839
0.531132
0.796024
0.785851
0.795579
0.833595
0.674579
0.701707
0.715452
0.75831
0.761228
0.74998
0.731633
0.704879
0.502224
0.528209
0.420853
0.32863
0.383134
0.673871
0.68849
0.86617
0.860801
0.550685
0.547184
0.682828
0.671716
0.87222
0.872287
0.842677
0.845607
0.824616
0.82371
0.205795
0.194008
0.825361
0.82948
0.309912
0.323162
0.430465
0.442532
0.255599
0.267794
0.0491543
0.0440682
0.0144459
0.0165986
0.0654155
0.0654296
0.098836
0.0907564
0.344008
0.35657
0.156982
0.237134
0.536672
0.484984
0.547163
0.54631
0.0618597
0.0726625
0.177394
0.188844
0.491052
0.499759
0.485236
0.463994
0.323904
0.278635
0.423078
0.434348
0.370803
0.35106
0.249654
0.234148
0.0527206
0.0749999
0.00189905
0.00208689
0.154826
0.149496
0.0266183
0.0124631
0.0209654
0.00965513
0.0282275
0.043132
0.0385086
0.0085092
0.00670668
0.85976
0.856765
0.821746
0.826269
0.842304
0.844269
0.791129
0.793815
0.804071
0.801535
0.811506
0.822789
0.810665
0.821624
0.761945
0.73964
0.608453
0.652474
0.0596936
0.019872
0.415102
0.286687
0.793893
0.792009
0.716448
0.708496
0.822594
0.823161
0.720473
0.719033
0.763414
0.764261
0.6645
0.663778
0.308783
0.303003
0.322879
0.320235
0.145966
0.142188
0.604334
0.597949
0.562387
0.566217
0.331362
0.333237
-0.00571724
0.0178186
0.270948
0.811795
0.794157
0.848454
0.852789
0.885569
0.887025
0.828448
0.82976
0.828569
0.64756
0.689474
0.698954
0.766127
0.798944
0.594022
0.00106593
0.0439347
0.313776
0.381206
0.418347
0.345912
0.760293
0.739436
0.730585
0.748899
0.494559
0.668492
0.867789
0.882237
0.840609
0.851262
0.830462
0.834369
0.896873
0.869658
0.840811
0.84466
0.857713
0.886801
0.681779
0.660791
0.742372
0.730743
0.514523
0.473372
0.855646
0.865635
0.725094
0.727694
0.86823
0.867998
0.830248
0.831877
0.819167
0.821592
0.763008
0.766539
0.655051
0.664779
-0.00383192
0.0214204
0.0798016
0.0746452
0.7525
0.74806
0.803383
0.698892
0.688074
0.525252
0.454899
0.577342
0.573993
0.740137
0.741611
0.599403
0.641496
0.539422
0.466392
0.238504
0.358404
0.237453
0.362322
0.0190887
0.0214219
0.508378
0.497827
0.66711
0.672003
0.75919
0.767317
0.737113
0.664581
0.658057
0.683149
0.677249
0.768718
0.772125
0.788513
0.79115
0.805364
0.808835
0.81496
0.817543
0.788528
0.785835
0.782389
0.784754
0.752904
0.755414
0.753035
0.756183
0.745133
0.752174
0.767589
0.771164
0.740736
0.744338
0.72015
0.724047
0.717478
0.721496
0.704075
0.699193
0.711995
0.716133
0.691016
0.0358746
0.0391445
0.0698033
0.0672615
0.153755
0.148625
0.630414
0.608421
0.611618
0.676436
0.682965
0.700983
0.707814
0.654286
0.615842
0.375839
0.453143
0.236108
0.347573
0.455997
0.522947
0.630412
0.623108
0.697284
0.673556
0.719786
0.704902
0.730414
0.716183
0.664994
0.661969
0.694508
0.69927
0.687708
0.699041
0.652337
0.66346
0.637921
0.653188
0.658919
0.624381
0.630663
0.606551
0.597582
0.482688
0.472034
0.577796
0.568272
0.628184
0.617267
0.517879
0.464716
0.590055
0.596654
0.667494
0.67391
0.670235
0.676326
0.648911
0.660498
0.612883
0.617799
0.627052
0.589317
0.580989
0.603817
0.612416
0.631334
0.636249
0.591221
0.599708
0.541008
0.531914
0.293671
0.361728
0.445796
0.438924
0.310147
0.321394
0.506333
0.482643
0.482515
0.541204
0.528748
0.55532
0.361342
0.349737
0.415542
0.428922
0.217883
0.229497
0.240797
0.246112
0.066278
0.0603418
0.024694
0.0264134
0.0280262
0.0475254
0.0535502
0.0352516
0.0401494
0.0144762
0.0206433
0.00225349
0.00180274
0.00391805
0.0048883
0.000456994
0.000560245
-9.92703e-05
-0.000112222
0.000378246
0.000459907
2.32939e-05
0.00030787
0.0156196
0.0182167
0.00726271
0.00866712
0.0019156
0.000682916
0.000720264
0.000522801
0.00360509
0.00269816
0.00581498
0.00439912
0.389575
0.442045
0.445648
0.434628
0.562107
0.569562
0.278059
0.260776
0.328403
0.313543
0.280306
0.374935
0.360222
0.228473
0.213104
0.315572
0.300648
0.228686
0.215275
0.178545
0.189461
0.134756
0.142467
0.0998164
0.0906795
0.0612106
0.0562766
0.0349117
0.0374712
0.00513512
0.0046412
0.00896232
0.0165645
0.00271881
0.00476334
0.0531576
0.0588062
0.861645
0.877982
0.876886
0.414232
0.337459
0.857915
0.847261
0.86068
0.853169
0.758434
0.777218
0.735241
0.752733
0.331553
0.449141
0.486824
0.433127
0.557917
0.748363
0.768801
0.769172
0.817485
0.823507
0.831986
0.825466
0.838178
0.828886
0.812012
0.820401
0.867811
0.871863
0.873224
0.87376
0.856968
0.854532
0.85812
0.856845
0.844378
0.839219
0.852611
0.847741
0.844991
0.871183
0.871135
0.87106
0.838738
0.800199
0.827335
0.799642
0.809962
0.834869
0.857505
0.707964
0.698327
0.264742
0.358632
0.735781
0.713321
0.801546
0.818288
0.824011
0.78402
0.792576
0.639308
0.619523
0.788106
0.776022
0.646885
0.641358
0.519593
0.302733
-0.0168832
0.00703169
0.704903
0.824469
0.851009
0.725695
0.666269
0.431182
0.431973
0.706235
0.75276
0.725155
0.851442
0.844035
0.857094
0.860452
0.839725
0.505089
0.495621
0.046894
0.0513517
0.826293
0.821617
0.724123
0.730413
0.552945
0.531163
0.454462
0.443224
0.290947
0.278753
0.288445
0.275564
0.109052
0.118596
0.0215279
0.0188894
0.0501805
0.0420386
0.0794427
0.0863646
0.0833744
0.0908234
0.229725
0.215538
0.318627
0.305885
0.386556
0.375494
0.0816293
0.102625
0.0240724
0.425413
0.480883
0.568935
0.508303
0.48719
-0.00130015
-0.00174588
0.166363
0.478805
0.487387
0.406466
0.394802
0.372875
0.379761
0.174894
0.119515
0.163747
0.152538
0.052163
0.058116
0.0200839
0.0223343
-0.000244255
0.000144644
1.13087e-05
-8.55364e-06
0.222274
0.230941
0.0399075
0.0446364
0.0317931
0.0356337
0.015222
0.0121057
0.0145764
0.016686
0.857037
0.854215
0.842193
0.844909
0.443406
0.327988
0.828481
0.823841
0.848054
0.849685
0.846175
0.848039
0.784806
0.781964
0.812332
0.809832
0.81184
0.823258
0.811168
0.822285
0.741889
0.76309
0.685589
0.715444
0.538446
0.456265
0.0463705
0.0269082
0.083379
0.0107734
0.102958
0.00642776
0.844292
0.846635
0.866371
0.864887
0.847684
0.846825
0.808488
0.811344
0.810972
0.810236
0.69438
0.692854
0.74467
0.743841
0.663884
0.664615
0.576552
0.576068
0.428133
0.42474
0.435976
0.435816
0.138641
0.134482
0.619535
0.629126
0.648513
0.652803
0.507723
0.504898
-0.0392318
0.0741383
0.160454
0.0505499
0.578804
0.614176
0.835134
0.840206
0.749838
0.764315
0.887748
0.888913
0.880278
0.894376
0.894657
0.882261
0.880387
0.665047
0.609083
0.770134
0.785035
0.778638
0.816184
-0.0128871
0.138374
0.208925
0.0937204
0.479831
0.428395
0.220909
0.575084
0.587185
0.860011
0.88023
0.885315
0.866956
0.839625
0.87295
0.899179
0.651325
0.630192
0.748579
0.750394
0.863166
0.862052
0.836827
0.838503
0.811341
0.814019
0.779953
0.780035
0.706796
0.709582
0.565366
0.557752
-0.00317588
0.014776
0.0442129
0.317706
0.200622
0.0019396
0.0293254
0.752852
0.748495
0.717839
0.713557
0.783075
0.786626
0.527847
0.457264
0.580556
0.738009
0.734341
0.798843
0.801274
0.60411
0.629652
0.645419
0.46801
0.541223
0.10302
0.105732
0.041727
0.0170472
0.0999607
0.199226
0.363804
0.518771
0.548643
0.557802
0.782789
0.779895
0.742019
0.746796
0.670954
0.694905
0.68915
0.743184
0.738842
0.781383
0.765326
0.806768
0.804849
0.803232
0.79392
0.810357
0.808617
0.809735
0.760367
0.757463
0.777345
0.778159
0.78391
0.790442
0.792976
0.750044
0.74711
0.733172
0.722335
0.7641
0.760535
0.733889
0.730157
0.73147
0.734989
0.713348
0.700475
0.705087
0.698444
0.707735
0.296081
0.301694
0.311185
0.29913
0.0142966
0.0136726
0.249839
0.256607
0.591837
0.584107
0.44001
0.434865
0.669318
0.676014
0.671147
0.664334
0.7312
0.739116
0.608301
0.646697
0.566792
0.570469
0.128495