/*--------------------------------*- C++ -*----------------------------------*\
  =========                 |
  \\      /  F ield         | OpenFOAM: The Open Source CFD Toolbox
   \\    /   O peration     | Website:  https://openfoam.org
    \\  /    A nd           | Version:  7
     \\/     M anipulation  |
\*---------------------------------------------------------------------------*/
FoamFile
{
    version     2.0;
    format      ascii;
    class       volScalarField;
    location    "1380";
    object      T;
}
// * * * * * * * * * * * * * * * * * * * * * * * * * * * * * * * * * * * * * //

dimensions      [0 0 0 1 0 0 0];

internalField   nonuniform List<scalar> 
238806
(
0.999154
1.00585
0.969621
1.32555
1.17674
1.00724
0.99793
0.993805
0.993728
0.972809
0.994225
1.18496
1.00222
0.999857
1.23864
1.21968
0.9929
0.985979
0.992039
1.00442
0.994018
0.99185
1.14989
1.01156
1.1808
0.966325
0.978272
1.00572
1.0788
1.18633
1.00333
1.00347
0.995622
1.0023
1.00262
1.00262
0.995097
0.995183
0.998174
1.02928
1.02373
1.27309
1.00098
1.00095
1.00311
0.991252
0.986315
0.978899
1.00137
0.99349
1.00249
1.0037
1.00199
0.999177
1.01141
1.01433
0.966978
0.947763
0.986405
0.953953
0.968699
1.01108
0.98116
0.993177
0.994758
1.00356
1.00233
0.995313
1.00213
1.00166
1.00022
1.00023
1.00139
0.991011
0.997785
1.00573
0.995843
1.00453
1.0046
0.994649
0.996346
0.999103
0.995661
0.996398
0.990543
0.994401
0.995285
1.0064
1.03727
1.01165
1.00633
1.01353
1.00902
0.997464
0.995056
1.00465
1.00488
0.987503
0.975068
1.28647
0.991044
0.995079
0.992456
1.00238
1.00594
0.989456
0.988484
0.988475
0.991656
1.00241
0.999648
0.990692
0.997011
1.00402
1.0024
1.00238
1.00259
1.02904
1.03729
1.03396
1.05754
1.14509
0.990059
0.995145
1.00756
0.997883
1.14145
1.19844
1.00344
1.11215
1.02018
0.961387
0.980627
1.29468
0.963502
0.984278
0.991997
0.991873
0.961988
1.16208
1.09381
1.21588
0.999366
0.997738
0.998217
0.993675
0.992818
0.993134
0.996009
0.994184
0.991505
0.996759
0.992339
0.992084
0.995867
0.988913
0.988302
0.997359
1.00113
0.994587
0.992571
1.00556
0.998165
1.00033
0.997884
1.00094
1.00092
1.003
1.00103
0.988767
0.988949
0.997416
0.994551
1.07301
1.05715
1.11316
0.990137
0.996311
1.00224
0.99642
1.13783
1.19799
1.4107
0.978214
0.961448
0.984444
0.937925
1.11842
0.99726
0.998296
1.0027
1.00278
0.987318
1.03619
0.975137
0.963278
0.977483
1.1728
1.33827
1.07847
1.21346
0.99559
0.99029
0.997003
0.997996
0.99571
0.998497
0.990213
0.989319
0.991415
0.9949
0.982109
0.99039
0.997476
1.00003
1.00086
1.00032
0.980396
0.989556
0.994269
0.989329
0.995775
0.992556
0.989966
1.00465
0.99771
1.0002
1.00273
1.00271
1.00391
1.00391
0.995885
0.995905
1.00469
1.00469
0.994968
0.994961
0.990369
0.990332
1.00071
1.0336
1.08211
1.0403
1.00302
1.00259
0.990964
0.999737
0.99507
1.00082
0.996001
0.995789
0.992136
0.993362
0.998685
0.993696
0.99651
1.01899
1.01507
1.02582
0.995315
0.997569
1.00218
1.0028
1.00511
1.00414
0.983818
0.981901
1.00615
1.00281
0.983242
0.983846
0.991461
1.07039
0.989789
1.24866
1.10393
0.990243
0.9952
0.992594
0.99375
0.992766
0.994423
0.990326
0.988251
1.00256
1.00284
1.00176
0.999087
0.997723
0.999826
0.979282
0.986452
0.995702
0.998828
1.00081
0.998925
1.0005
0.995912
0.99357
0.984821
0.994365
0.999231
1.00578
1.00437
0.989118
0.988452
1.00449
1.00263
1.0056
0.99309
1.00142
1.00279
1.00101
1.00275
0.996148
0.996823
0.993671
0.993601
1.00395
1.00394
1.00355
1.00358
0.996244
0.994571
1.00408
1.00388
0.994711
0.994717
1.03228
0.997226
0.996671
1.13403
1.10981
0.997118
0.997113
0.995076
0.995072
0.972889
0.97241
1.03959
0.977399
1.00764
0.998163
0.99555
1.00152
0.996733
0.996562
1.2105
1.23298
1.05379
1.26178
1.09558
1.09305
0.971273
1.07011
1.00582
1.00455
0.996147
1.00094
1.00096
1.00484
1.00446
0.994935
0.999086
1.00112
0.988449
1.13037
1.06326
1.16334
1.01656
1.01525
1.02115
1.00717
1.40557
1.11789
1.06442
1.09355
0.996561
1.00382
1.01848
0.997493
1.00364
1.00142
0.997765
0.991769
0.997495
0.99107
0.987624
0.987525
0.987875
0.989067
1.0059
1.00199
1.00083
0.996597
1.00288
1.00257
0.995516
0.991536
0.99601
0.995106
0.982951
0.97891
0.990511
0.992444
0.993966
0.997299
1.00045
1.00044
0.993378
0.986377
0.978522
0.979943
0.99193
0.996728
1.00419
1.00341
0.990562
0.988656
1.0025
1.0043
0.997307
0.995836
1.00445
1.00448
1.00109
1.00277
0.995594
0.994345
0.994342
1.00397
1.00396
1.00315
1.0032
1.00467
1.00465
0.996482
0.996453
0.99018
0.990289
1.00388
1.00388
0.995631
0.994561
1.00358
1.00359
1.01208
1.01471
1.00861
0.993456
0.995933
0.899684
1.12374
1.08332
1.16481
1.0114
1.01432
0.991839
0.991827
0.967181
0.967677
1.12176
1.10059
1.18912
1.12009
0.960692
1.04463
0.99487
0.997451
1.00626
0.997187
0.996602
0.99337
0.984733
0.997057
1.02067
0.978682
1.15365
1.26518
0.939186
1.17573
0.981067
0.996917
0.993274
0.993324
0.991463
0.993814
0.993828
1.00527
1.00388
1.00115
1.00164
1.00438
1.00465
1.00712
1.00203
0.99364
0.988951
1.1964
0.987643
0.982827
1.005
1.0946
1.25321
1.12287
1.22401
1.01946
1.04382
0.999453
1.00106
1.00105
1.01799
0.99058
0.995834
0.990856
0.990557
0.991986
0.995577
0.993298
0.993056
0.987679
0.989032
0.990012
0.990266
1.00276
1.00236
1.00258
1.00289
0.993197
0.992686
1.00259
1.00284
0.999537
1.00191
0.992975
0.997376
0.980369
0.978715
1.12699
1.1172
0.988709
0.990389
0.988418
0.988951
0.992203
0.989538
0.99791
0.994003
0.999222
1.00075
0.997557
0.991611
0.982193
0.978519
0.988752
0.988391
0.990142
0.994213
1.00352
1.00495
0.996714
0.999877
0.991742
0.98927
0.990204
0.986886
1.00482
1.00312
1.00196
1.00258
0.992467
0.995234
0.994414
0.995147
1.00263
1.00265
0.997619
0.998381
0.992985
0.993393
1.00145
1.00017
1.00414
1.0041
1.00288
1.0009
1.00385
1.00384
0.994108
0.994095
0.991484
0.996077
1.00427
1.00402
1.00408
1.00408
0.995402
0.995396
0.99717
0.997256
1.00226
1.00427
1.00196
0.999287
1.03069
1.04365
1.02825
1.08036
1.00003
0.99608
0.997932
0.994356
1.00948
0.99353
1.11287
1.07162
1.00367
1.00794
1.00042
0.999725
1.00479
1.00714
1.00021
0.999669
1.1097
1.11058
1.1142
1.10469
1.12014
1.1111
1.03097
0.992285
0.990065
0.991579
0.994668
0.994909
0.997355
0.99667
1.00644
0.997506
0.990365
0.989867
0.989638
0.993902
1.18907
1.19443
1.01144
1.00677
0.994573
0.979667
0.982419
0.997937
1.21427
0.996132
0.991629
1.03568
1.03899
0.995734
0.992504
0.991791
0.992125
1.00532
1.00375
0.996686
0.997238
1.005
1.00429
0.989701
0.986535
1.01094
1.01383
1.02218
1.09342
0.984765
1.27496
0.980286
0.99096
1.00963
0.891851
1.09327
1.01129
1.00537
0.989269
0.998922
1.27908
1.23678
0.994204
0.994307
0.996992
1.015
1.00157
1.00359
0.996733
0.987982
0.995591
0.986937
0.998645
0.990719
0.988424
0.99184
0.992468
1.00198
1.00222
1.00175
1.00047
0.997451
1.00121
0.994508
1.00316
1.00013
1.00203
1.0026
1.00289
0.998834
0.997347
0.996406
0.992711
0.979586
0.981919
1.03088
1.06368
0.983388
0.991539
0.992002
0.98901
0.989244
0.991126
0.988651
0.988562
0.988893
0.990847
0.999687
0.996195
1.00008
0.996076
0.988134
0.981613
0.989792
0.988179
1.00412
1.00422
0.995132
0.993189
0.995232
0.994259
0.987782
0.989034
1.00532
0.99998
1.00263
1.00494
1.00019
0.994754
0.991681
1.00334
1.00258
1.00268
1.00442
0.99954
0.998518
1.00158
1.00109
0.989078
0.988698
1.04571
1.05309
1.06175
1.06134
0.997032
0.999104
1.00285
1.00292
1.00367
1.00364
1.00481
1.00481
0.996882
0.996879
0.995566
0.999058
1.00472
1.00441
0.988543
0.988549
0.993684
0.993759
1.00099
1.00102
1.00387
1.00388
0.996449
0.996504
0.994317
0.994308
0.99543
0.995468
1.03504
1.03509
0.995157
0.995325
1.00436
1.00232
1.02604
1.02344
1.01489
1.01024
1.02592
0.994137
0.973041
1.04665
1.00945
1.00957
1.04105
1.08495
1.00054
0.996265
0.997183
0.995309
0.996484
0.998214
1.01854
1.00656
1.0003
1.01926
1.00385
1.00387
0.994573
0.994561
1.00365
1.00796
1.01152
1.01446
0.98868
0.98658
0.996596
0.996554
0.992018
0.991904
0.99442
0.99404
0.999171
0.998696
0.970022
0.969455
1.05629
1.01198
1.03665
1.00565
0.997928
1.00995
1.01461
1.03982
0.94042
1.00743
1.00791
0.998607
0.992608
0.994876
0.996372
0.997869
0.994081
0.996999
1.00551
0.989499
0.99361
0.996426
0.995497
0.993995
1.07267
0.998811
0.995803
0.978249
0.992568
1.00867
1.10728
0.992444
0.99661
0.935341
1.10835
1.00095
0.998506
0.993894
0.99442
1.00521
1.004
0.997763
0.998304
0.992548
0.994012
0.997293
0.993822
0.981262
0.982358
1.04242
0.99783
1.00311
1.19432
1.31755
1.08398
0.993137
0.998826
0.982331
0.983402
1.06541
1.14232
0.968628
0.959813
1.03302
1.01726
1.00991
1.01328
0.990338
0.994386
1.00061
1.03259
0.99475
0.992286
1.00559
1.00344
0.992185
0.989512
0.989249
1.00587
1.00588
1.00255
1.00256
0.992667
0.99381
1.0026
1.00281
0.992
0.996244
0.981238
0.983875
0.977914
0.978742
1.04726
1.0145
0.982828
0.978652
1.00105
0.98835
0.989626
0.993002
0.991138
0.993877
0.990578
0.998521
1.00092
0.990635
0.997721
1.00341
1.00493
0.996365
0.994318
1.00076
0.997461
0.997787
0.995423
0.993642
0.995134
1.00506
1.00137
1.00101
1.0027
1.00545
1.00277
1.00261
1.00208
0.996619
0.99471
0.999596
1.00274
1.00442
1.00341
1.00349
1.00279
1.00302
1.00219
0.986237
1.04579
1.05306
0.996434
0.994082
0.999058
0.993759
0.993909
0.993984
1.00348
1.00342
1.00389
1.00388
1.0043
1.00423
1.00382
1.00352
0.996213
0.994849
0.995765
0.999149
1.00468
1.00435
0.989301
0.989248
0.996222
0.999332
0.993413
0.993309
0.99216
0.992245
0.99706
0.997137
1.00291
1.00287
1.00428
1.00427
1.00407
1.00407
0.993901
0.991827
0.994548
0.9956
0.988477
0.988444
1.02272
1.02284
0.996231
0.99624
0.99168
0.991676
1.00004
1.00002
1.00456
1.00388
0.994705
0.994983
1.00805
1.00456
0.990485
1.01558
1.02143
1.04903
1.0555
1.03209
0.992426
1.01024
1.01047
0.99566
0.994248
0.996547
0.995499
0.993829
0.993619
0.99684
0.992253
1.10186
1.15674
1.03901
1.14626
0.989162
0.988782
1.00166
1.00388
0.995433
0.995581
1.01132
1.01419
1.00798
1.00365
1.01138
1.01429
0.993254
0.994504
0.994444
0.99354
0.994957
0.995273
0.99693
0.996918
0.992476
0.993397
0.996615
0.996883
0.991786
0.991872
1.00346
1.00393
0.983957
0.985668
1.11304
1.11243
0.968886
0.969639
1.03326
1.14925
0.988566
0.989274
1.00379
1.00122
0.994229
0.997971
0.999158
0.998265
1.00581
0.997008
1.001
0.996773
0.98679
0.996564
1.06717
1.01486
1.06086
1.01668
0.968816
1.01352
1.00554
0.987818
0.999197
1.29385
1.04689
0.988748
1.03563
0.937247
1.11428
1.0426
1.00141
1.00108
0.996394
0.990746
0.996398
0.996986
0.99931
1.00246
1.00064
1.00004
0.999684
0.998515
1.02657
0.993742
0.995197
1.0089
0.984197
1.00771
0.990567
0.972693
1.02245
0.945392
0.995317
1.0076
1.00971
1.00414
1.00328
0.985132
0.989858
1.00838
1.06718
0.997303
0.981688
1.10442
1.0004
1.00331
0.994074
0.989827
1.00589
1.00117
1.00289
1.00582
1.00329
1.00224
0.994711
0.996395
0.989686
0.98963
0.998647
1.00165
1.00257
1.00275
1.00195
0.999817
0.989837
0.993315
0.97897
0.979916
0.978239
0.97919
1.10585
1.17594
0.977435
0.97994
1.00605
1.02993
0.988471
0.990372
0.989877
0.991823
0.999226
1.00118
1.00496
1.00402
1.00244
0.999769
0.996032
0.998881
0.99269
0.990157
1.00296
1.00475
1.00481
1.00234
1.00268
1.00133
1.00271
1.00528
1.00219
1.00272
0.993401
0.993682
1.0028
1.00131
1.00282
1.00444
1.00038
1.00322
0.986351
1.00244
0.995761
0.994201
0.993967
0.993858
0.993674
0.993904
0.988538
0.989196
0.998688
1.00117
1.00337
1.00279
1.00298
1.00304
1.0036
1.00309
1.00452
1.00457
1.00415
1.00413
0.995726
0.995796
0.994905
0.996258
0.992957
0.992865
1.00389
1.00368
1.00392
1.00373
1.00483
0.999246
0.999294
0.999317
0.999316
0.992012
0.995
0.994925
0.990448
0.99052
0.993831
0.995376
1.004
1.00382
1.00384
1.00385
0.99647
0.99653
1.00303
1.00303
1.00438
1.00437
0.998471
0.998535
0.992657
0.994422
1.00378
1.00379
0.995888
0.995637
0.988431
0.995406
1.02291
1.02286
1.01643
1.01643
0.993048
0.993045
0.992012
0.992043
0.994751
0.995125
1.002
0.999234
1.00381
1.00456
0.999252
1.00191
0.995585
0.994789
1.02756
1.03678
0.991615
0.981463
1.04073
1.01606
0.965649
0.9899
1.07501
1.01513
1.03225
0.978788
1.05236
0.996421
1.00329
0.989947
0.989137
1.01111
1.02686
0.987334
0.994918
0.996029
0.998128
1.00008
1.27296
1.02449
1.05865
1.02499
1.06998
1.28978
1.1996
0.986036
0.980679
1.00162
1.00157
0.998235
0.992407
0.986291
0.98607
1.0031
1.00364
0.992591
0.993545
1.00798
1.00365
0.993177
0.994644
0.993519
0.994435
0.999339
0.998884
0.995085
0.995249
0.996952
0.99698
1.07698
1.07718
1.06588
1.08074
1.00488
0.995448
0.992018
0.992227
0.996149
0.995781
0.993725
0.994352
0.996581
0.998064
1.11161
1.11234
0.975042
0.97681
0.988459
0.988938
1.02096
1.00559
0.998252
0.998261
0.996958
0.998689
0.994228
0.997448
1.00606
0.997051
1.01249
0.996776
0.993707
0.99623
0.96424
0.978193
0.983679
1.00047
1.00501
1.01926
1.0046
1.00577
1.01022
0.974485
0.982843
1.04389
1.0428
0.997352
1.00503
1.00022
1.00312
1.00206
0.998812
0.997503
0.999607
0.999451
0.993227
0.995696
0.997985
1.00855
1.03612
0.988695
1.01225
1.00537
1.0245
1.02106
1.01371
0.988724
1.01193
1.06058
1.16511
1.18798
1.04715
1.08176
1.00239
0.999842
0.997093
0.984963
0.99147
0.988449
0.967642
0.990875
1.02607
1.00034
1.20378
0.986129
1.00361
0.994274
1.00111
1.00356
1.00587
1.0067
1.00126
1.00196
1.00595
1.0029
0.998587
1.00243
1.00583
0.992471
1.00349
0.990747
0.992574
0.991842
0.993619
1.00143
0.998044
0.994867
0.997609
0.986835
0.982603
0.982505
0.986065
1.00514
0.985907
1.10145
1.0607
1.14456
1.17171
1.00977
1.08814
1.05689
0.993953
0.988368
0.989271
1.00383
1.00497
0.999106
1.00234
0.99574
0.99378
0.994997
0.996768
0.993386
0.991016
1.00279
1.00465
1.00263
1.0048
1.00271
1.00512
0.993674
0.994521
1.00278
1.00119
1.00317
1.0026
0.995297
0.99646
0.996825
0.996325
1.02943
1.03228
1.04819
1.04491
1.01299
1.00964
0.993327
0.991572
0.995536
0.99548
0.996772
0.99546
1.00229
1.00244
1.00382
1.0038
1.00426
1.00422
1.00357
1.00352
1.00387
1.00347
1.00359
1.00447
1.00325
1.0033
1.00346
1.00349
1.0482
1.04825
0.995845
0.995864
0.996475
0.995969
1.04858
1.05045
0.988697
0.988772
0.993141
0.993234
0.999508
0.997487
1.00391
1.00371
1.00394
1.00376
0.989303
0.989402
0.996009
0.991398
0.988548
0.989144
0.99197
0.99185
0.995301
0.995226
1.00395
1.00378
1.00404
1.00432
0.998646
0.99859
1.00427
1.00301
1.00386
1.00387
1.00439
1.00439
0.996753
0.996752
0.989818
0.989729
0.994242
0.992402
0.990793
1.00062
1.00061
0.995462
0.995456
0.993094
0.993097
0.998936
1.00018
1.02224
1.02181
1.02278
1.02256
1.03525
1.03532
0.997282
1.0166
0.994381
0.994385
0.99432
0.994484
1.00136
1.00137
1.0015
0.998683
1.00396
1.00456
0.994981
0.994973
0.999118
1.00178
1.00385
1.00457
1.00446
1.00309
0.995023
0.995753
1.02798
1.02525
1.02966
1.03666
1.02927
1.01906
0.994055
1.00578
1.00504
1.03798
1.00713
1.06511
1.02488
1.00063
0.996124
0.995709
0.984714
0.987253
0.990284
0.982815
0.992997
0.989887
1.00155
1.00583
0.996052
0.994367
0.994156
0.994487
0.99975
1.00725
1.00164
1.04902
1.02102
1.03819
1.16638
1.02628
1.00441
1.0077
1.12151
1.03983
0.984053
0.982414
0.996073
0.995564
1.00203
1.00387
0.9935
0.99345
0.984664
0.984498
1.00364
1.00364
1.01235
1.0321
0.99351
0.992575
1.01136
1.01427
1.01146
1.01439
0.992474
0.993216
0.993114
0.992975
0.994399
0.993456
1.00211
1.00211
0.995471
0.994652
0.99532
0.99539
0.996157
0.996086
0.999052
0.999066
1.07953
1.07546
1.07652
0.995453
1.00478
0.99658
0.99653
0.996418
0.995834
0.993719
0.993414
1.00713
1.00718
1.10534
1.10652
1.00397
1.00531
0.971823
0.972728
1.0341
1.03435
1.21046
1.22751
0.990837
0.992439
1.013
1.01246
0.99452
0.997183
1.00245
1.00348
0.994572
0.996953
1.00677
0.997974
0.993557
0.993236
1.18854
1.18174
0.977135
1.01461
0.992615
0.996417
1.00281
0.999784
1.00301
0.992579
0.991584
1.01056
0.997961
1.01383
1.1589
1.19001
0.99499
0.982769
0.985014
1.01605
1.13224
1.09637
1.21252
1.18296
1.17404
1.00302
0.999494
0.982761
0.980713
0.980388
0.981636
0.995126
1.01162
1.00728
1.11738
1.00437
0.984651
0.987305
0.994727
0.997454
1.00704
1.00073
1.006
1.0007
0.996389
1.00225
1.00595
0.999337
1.00278
0.994481
1.00278
1.00307
1.00563
0.990844
0.990542
0.989873
0.994471
1.00061
1.00054
0.999376
0.996134
0.991627
0.978506
0.979469
0.993108
1.00582
1.1852
1.17788
1.03936
0.979652
0.980134
1.00546
1.00306
1.0046
1.00365
1.00497
0.997002
0.994824
0.994616
0.995833
1.00263
1.00469
1.00028
1.00122
0.999871
0.999885
1.00249
1.00209
0.995999
0.996029
0.999124
0.999119
0.994041
0.994001
1.05994
1.03733
1.01933
1.023
0.998068
0.997204
1.04186
0.992196
0.992754
0.991764
0.993513
0.990043
0.989961
0.994377
0.994163
0.992457
0.99251
1.00096
0.998467
1.00424
1.00468
1.00331
1.00324
1.00378
1.00397
1.00418
1.00385
1.00384
1.00156
1.00169
1.0047
1.0048
1.00455
1.00453
1.00381
1.00379
0.992494
0.992504
0.99643
0.996408
0.996043
0.996037
0.996871
0.995089
0.996374
0.991669
0.991827
0.995956
0.994341
0.991292
0.989725
1.00389
1.00366
1.00357
1.00454
1.0041
1.00409
1.00393
1.00375
1.00415
0.998936
0.99902
0.996263
0.996491
0.9891
0.989058
0.989844
0.990018
0.992066
0.99037
1.00427
1.00431
1.00398
1.00381
1.00425
1.00081
1.00075
0.998751
0.998798
1.00096
1.00406
1.00405
1.00484
1.00485
1.00439
0.994128
0.995182
0.993219
0.993093
0.989116
0.988602
0.99052
0.990676
0.997865
0.997878
1.00952
1.03546
0.993321
0.993647
0.993664
0.994282
0.994373
0.995514
0.995435
0.988424
0.988425
1.02148
0.994935
1.03569
1.03592
1.01671
1.01684
1.03518
1.02282
0.993102
0.993066
0.993926
0.993927
0.996199
0.996202
1.00168
1.00168
0.995149
0.995144
1.00356
1.00382
0.999823
1.00176
0.998124
0.997955
0.999305
1.00208
0.996824
0.995248
1.00314
1.0032
1.00377
1.00457
0.994713
0.994983
1.00052
0.997633
1.00106
1.00028
1.0156
0.997077
1.0058
0.995862
0.996062
1.01458
1.01535
1.00135
1.00219
1.00471
1.00875
1.03055
1.1263
1.00412
1.08147
0.955542
0.907782
1.00826
1.00844
1.002
0.994473
0.984272
0.984909
1.00933
1.00609
0.982636
0.98317
0.999965
0.985809
1.01219
1.10801
0.999116
1.00103
0.995685
0.995232
1.00886
1.00135
0.99684
1.01436
1.01419
0.99062
1.02168
1.02485
1.05219
0.998911
1.03115
1.01296
0.999019
1.00498
0.998109
0.990676
0.988739
1.00381
1.00383
0.996783
0.999533
0.985791
0.980387
0.995239
0.997116
1.01691
1.01689
0.990162
0.990107
0.98543
0.985301
0.990959
0.990885
1.00308
1.00308
0.999665
1.00386
0.993479
0.992561
0.995452
0.994821
1.01135
1.01425
0.999383
0.996719
1.01151
1.01444
1.01223
1.01513
0.993385
0.993228
1.03308
1.03252
0.988635
0.986783
0.98863
0.9867
0.987247
0.987388
1.00335
1.00345
0.99703
0.996318
0.995145
0.995112
0.995477
0.995537
0.997232
0.997218
0.991967
0.991666
0.996181
1.00001
1.00717
1.00502
1.00257
1.00247
1.00409
1.00576
0.992357
0.992214
0.996529
0.996972
1.00371
1.00408
1.10768
1.10865
0.984776
0.981056
1.004
1.00486
0.970172
0.970924
1.03393
1.03352
0.992015
0.991774
0.990168
0.988728
0.999069
1.00556
0.99989
0.995691
0.998928
1.00002
1.11157
0.994636
0.994137
1.00651
0.998522
1.00665
0.998279
1.00589
0.995763
0.988258
0.9965
1.01129
1.18008
1.00996
1.03808
1.22119
1.28669
1.00171
1.02935
1.17555
0.9885
0.992306
0.984426
0.994876
0.974169
0.970812
1.02095
0.980954
1.1244
1.02627
1.00091
0.992793
0.992225
0.997184
1.00516
1.00084
1.00594
0.996613
1.00249
1.00049
1.00261
1.00154
1.00583
1.00337
0.99796
0.991297
0.987071
0.99979
1.00063
0.988384
0.985006
0.980399
0.984358
1.16141
1.08302
0.984679
1.00444
1.00356
1.00326
1.00487
0.998248
1.00153
1.00267
1.00156
0.999831
0.999385
1.00371
1.00536
1.00371
1.00318
0.995108
0.995528
1.00373
1.00632
0.996377
0.996386
0.996461
0.996481
0.996477
0.99651
0.995787
0.995937
0.994651
0.994441
1.03355
1.03103
1.06193
1.02634
1.03894
1.03619
0.982268
0.983104
0.991861
0.993604
0.991669
0.99342
0.995572
0.995322
0.989554
0.989585
0.990865
0.990908
0.996766
0.996928
1.00474
1.0047
1.00285
1.00409
1.00392
1.00399
1.00266
1.00273
1.00399
1.004
1.00335
1.00142
1.00405
1.00402
1.0042
1.00422
1.00396
1.00395
1.0205
1.02133
0.995889
0.995898
0.996871
0.996862
0.996465
0.995956
0.996525
0.996022
0.996337
0.995024
0.984585
0.984199
0.994246
0.998175
0.994418
0.996049
0.98988
0.991478
1.00395
1.00469
0.999411
0.997394
1.00447
1.00342
1.00439
1.00471
1.00407
1.0039
1.00445
1.00475
1.00393
1.00374
0.991295
0.991416
0.99702
0.99715
0.991789
0.992075
0.99928
0.996109
0.995152
0.995076
0.991708
0.991554
0.996776
0.996841
1.00306
1.00313
1.00397
1.00379
1.00423
1.00421
0.99665
0.996712
1.00486
1.00486
1.00436
1.00435
1.00485
1.00471
0.996498
0.996512
0.993221
0.993028
0.989906
0.993321
0.988884
0.988632
0.992544
0.994338
1.00297
1.00297
1.00262
1.0026
1.00429
1.00465
0.996676
0.996675
0.994526
0.995557
0.994041
0.994169
1.03717
1.03726
0.988435
0.988447
0.994838
0.994769
0.995081
0.995281
0.995782
0.995956
0.997329
0.997389
0.994384
0.994389
0.995218
0.995212
0.996584
0.996735
0.995373
0.995522
0.996118
0.995742
0.998905
0.998909
0.994756
0.994765
1.0016
0.998761
1.0043
1.00226
1.00073
1.0005
0.999352
1.0021
0.995207
0.995189
0.996813
0.996821
0.994716
0.994969
1.00185
0.999191
0.996212
0.995062
0.997665
1.00049
0.995656
0.995644
1.00125
0.993801
0.998088
0.993156
0.997657
0.996082
0.995292
1.05087
1.04304
0.996136
0.996867
1.05727
1.07456
0.99566
0.978648
1.00877
1.01513
1.03658
1.0516
1.05109
1.02003
1.03092
1.0052
1.04378
1.08399
0.994258
0.994843
0.985733
0.988719
0.996086
0.986568
0.986232
0.987567
1.01671
1.01712
1.00578
1.01974
0.990712
0.983434
0.994989
1.00051
0.979187
1.04339
0.987247
1.00136
1.00201
1.11068
0.999285
0.997808
0.992516
0.997947
0.996019
0.9943
0.994316
1.00013
0.992245
0.995585
1.00203
1.00449
1.06955
1.09504
1.09371
1.05156
1.21503
1.16131
1.2927
1.00168
1.00327
0.99488
0.996311
0.987895
0.987397
0.990044
0.985559
1.0028
1.00283
1.00175
1.00391
1.02804
1.03199
0.989674
0.985961
0.995208
0.995186
1.00253
1.00253
0.998039
0.99814
0.993717
0.993772
0.99457
0.994641
0.986259
0.9846
0.990805
0.990725
1.00174
1.00175
0.984945
0.989823
0.995164
0.994006
0.999537
1.00373
0.987146
0.986977
0.99429
0.994201
1.00795
1.00366
1.01133
1.01422
0.995418
0.994711
0.996724
0.999385
1.01148
1.01441
1.01176
1.01468
0.993279
0.994729
1.00088
1.0015
0.996289
0.998378
0.988655
0.986791
0.988628
0.986761
0.991675
0.995968
0.995953
1.00265
1.00275
0.99496
0.995054
0.996313
0.995947
0.99634
0.996332
1.0043
1.00432
0.993569
0.993566
0.99216
0.992708
0.992325
0.992947
0.992083
0.993613
1.00707
1.00442
1.05358
1.08915
0.97909
0.969584
0.999752
0.99976
1.00678
1.0072
0.991981
0.992066
1.00216
1.00291
0.995303
0.994831
1.00609
1.00581
0.968174
0.968368
0.968416
0.968241
1.03249
1.03186
0.999941
0.997693
0.992853
0.994873
0.970616
0.971425
1.14825
1.17583
1.18191
0.991065
0.985116
0.996081
0.996417
0.997144
0.997073
1.00587
1.00614
1.00018
1.00348
0.993282
0.990938
0.992148
0.991804
1.01363
1.18556
1.2115
1.14113
1.12123
1.13076
1.16922
1.00124
0.993948
1.01815
1.01831
1.02977
1.00675
1.00263
0.99639
0.98914
0.992577
0.992805
0.991941
0.997772
1.00296
1.00084
1.00606
1.00268
0.999935
0.988297
0.983315
1.00019
0.998794
0.999275
1.03191
1.00426
1.00387
1.00059
1.00043
0.993949
0.9935
1.00481
1.00482
0.992771
0.992824
1.0031
1.00253
0.994737
0.994981
1.0483
1.04969
0.994612
0.995245
0.995804
0.995788
0.996393
1.0035
1.00427
0.99537
0.996479
0.994216
0.994189
0.9951
0.995082
0.99536
0.994059
0.996704
0.995687
0.994204
0.994561
0.995169
0.994322
1.06183
1.06139
0.995264
0.994494
0.997799
0.997705
0.991956
0.993696
0.990123
0.990112
0.990251
0.991838
0.991996
0.988689
0.988715
0.990843
0.99081
1.00043
0.997655
0.995317
0.99549
1.00422
1.00411
1.0049
1.00492
1.00406
1.00401
1.00375
1.00371
1.00265
1.00064
1.00116
1.00129
1.00479
1.0048
1.00442
1.00439
1.00391
1.0039
1.00338
1.00342
1.00447
1.00445
1.00398
1.01755
1.01716
1.00465
1.00412
0.99252
0.99254
0.996727
0.995887
0.996297
0.996463
0.995943
0.996505
0.996003
0.994824
0.994151
0.991908
0.998841
0.992988
0.995
0.995804
0.999887
0.99085
0.99101
0.988732
0.98874
0.991199
0.989649
0.991385
0.989802
1.00387
1.00363
0.999318
0.997307
1.0045
1.00349
1.00437
1.00469
1.0037
1.00482
1.00483
1.00413
1.00411
0.992817
0.992744
0.992681
0.992831
0.988616
0.988603
0.988964
0.988867
0.996216
0.999314
0.989422
0.989429
0.993513
0.993605
0.996911
0.996981
1.00422
1.00299
1.00477
1.00475
1.0048
1.00426
1.00424
0.996344
0.996407
0.998701
0.99659
1.00486
1.00485
1.00472
1.00472
0.995058
0.994099
0.989863
0.989635
0.998612
0.99869
0.988678
0.988687
0.988734
0.990332
0.988596
0.989191
1.00393
1.00394
1.00069
1.00068
1.00456
1.00457
0.993597
0.995669
1.00392
1.00391
0.992827
0.992019
0.994262
0.996137
0.996128
0.996436
0.996452
0.994508
0.99551
0.99312
0.993169
0.988491
0.988693
0.994775
0.99476
1.02129
1.02126
0.988771
0.988731
0.995198
0.988813
0.996212
0.996208
0.99522
0.995236
0.993923
0.993054
0.993863
0.994014
0.996155
0.996316
0.996123
0.996274
0.996277
0.992889
1.00385
1.00385
0.99482
0.995232
1.00379
1.00365
1.00183
0.999834
1.00003
0.995047
0.995034
0.999359
1.00209
0.994997
0.994987
0.995251
0.99525
0.993451
0.993376
0.99653
0.995149
0.997742
1.00076
1.00305
1.00445
1.00244
0.999436
1.00011
1.00093
1.00232
0.996465
0.997759
0.992973
1.05456
1.05319
0.988936
0.996851
1.00001
1.03763
1.06301
0.996455
0.99308
0.989658
1.00322
1.00916
0.981199
1.01434
1.00022
0.890581
1.04224
1.02449
1.04535
1.05519
0.969352
0.994744
0.994427
1.01286
1.01525
0.994385
0.995342
1.00452
1.0073
0.998424
0.997669
0.9908
0.991951
0.984874
0.984607
1.00356
1.00465
1.00967
1.00971
1.01644
1.00563
1.01936
1.01317
1.00656
0.990103
0.990427
0.99164
1.00088
0.996783
1.01115
1.00351
1.01016
1.00032
0.986943
0.975648
0.980145
1.17573
1.05917
0.996012
0.995363
0.990381
1.00042
0.99938
0.997695
0.996553
1.00104
1.02685
0.994645
0.995409
1.00458
1.02251
1.06206
1.09845
1.1165
1.12496
1.27755
0.9819
0.973249
0.980275
0.986042
1.03227
1.03514
0.980709
0.991657
0.985826
1.00267
1.00156
0.994073
0.989713
1.00275
1.00309
1.00308
1.05763
1.05659
0.986415
0.990277
0.990986
0.99107
0.98844
0.994226
1.00253
1.00203
1.00384
1.00384
0.992307
0.992212
0.995921
0.995911
0.994263
0.994363
0.987737
0.987631
1.00565
1.0057
0.996448
0.996534
0.994482
0.994489
1.00172
1.00171
1.00257
1.00256
0.99067
1.01179
1.03162
0.993812
0.995052
1.008
1.01131
1.01417
1.03711
1.03238
0.994374
1.00795
1.00365
0.999378
0.996711
1.00807
1.00371
0.993206
0.992468
1.01205
1.01494
0.996752
0.999752
0.992425
0.992399
1.03406
1.0206
1.00255
1.00367
0.998589
0.996492
0.991786
0.991827
0.991718
0.99176
0.994231
0.994277
1.00225
1.00225
0.99505
0.995139
0.998319
0.997745
0.994403
0.996841
0.995969
0.99635
0.996176
0.996184
0.996306
0.9963
1.00377
1.00376
0.995088
0.995081
0.99211
0.992622
0.992275
0.992853
0.994039
0.99231
1.00024
0.996376
1.00457
0.9912
1.05995
1.08513
1.04378
1.09578
1.0369
1.10056
1.00272
1.00202
0.996607
0.996662
0.995097
0.995194
0.992482
0.992214
0.991756
0.991739
1.00547
1.00597
0.997461
0.99801
1.00708
1.00688
1.00272
1.00326
0.978219
0.978665
0.973668
0.974559
1.0312
1.03101
0.999644
1.00226
1.00612
1.00674
0.982119
0.980163
0.961033
1.23793
1.18307
1.20265
0.990724
0.992442
0.994784
0.995095
0.997446
0.996494
0.995845
0.996493
0.986669
0.996003
0.998833
1.00157
1.00047
1.00614
1.00912
1.00471
0.999029
0.990184
0.99774
1.02061
1.26767
1.16597
1.2345
1.06837
1.09382
1.2258
0.968741
1.00622
0.990045
0.990652
1.00144
1.00361
0.992896
1.00295
0.997097
0.983074
0.980182
0.99936
0.998412
0.992223
0.99169
1.00332
1.00332
0.992574
0.992641
1.00325
1.00375
0.995126
0.995548
1.00428
1.00423
1.04384
1.05026
0.999477
1.0013
0.985874
1.04628
1.0527
0.99615
0.996143
1.00002
1.0001
0.998023
0.997973
0.995446
0.996492
0.994247
0.996932
0.996933
0.996656
0.996693
0.995375
0.994149
0.994307
0.995838
0.996695
1.02636
1.0242
1.03954
1.059
1.02864
1.00689
0.993565
0.995999
0.997792
0.998202
0.99728
0.99936
0.990206
0.99029
0.989978
0.989495
0.989607
0.988575
0.98856
0.98953
0.988669
0.993783
0.994093
0.992427
0.990836
0.996228
0.995826
0.994668
1.0048
1.0048
1.00512
1.00496
1.00382
1.00452
1.00467
1.00392
1.00393
1.00477
1.00478
1.00323
1.00312
1.00472
1.00474
1.00433
1.00429
1.00392
1.00378
1.00376
1.00418
1.0045
0.995787
0.99576
0.994355
0.994002
1.0385
1.03785
0.99588
0.995867
0.996517
0.996542
0.994339
0.994304
0.996483
0.995937
0.996866
0.996856
0.99663
0.996131
0.994196
0.994899
0.994144
0.994165
0.993313
1.02571
0.99252
0.995275
1.05551
1.045
1.00564
0.983084
0.994119
0.995691
0.988789
0.988695
0.994473
0.998359
0.997771
0.993798
0.994494
0.996146
0.991109
0.989578
1.0023
1.00241
1.00386
1.0036
1.00436
1.0032
0.997784
0.999818
1.00177
1.00187
1.00484
1.00484
1.00474
1.00442
0.99472
0.994662
0.990953
0.990881
0.997258
0.998853
0.999102
0.999179
0.989383
0.988555
0.988757
0.988905
0.996271
0.999334
0.992097
0.989392
1.00295
1.003
0.998986
0.998928
1.00122
1.00131
1.00478
1.0048
1.00421
1.00419
1.00477
1.00479
1.00294
1.00298
0.998532
0.998474
1.00469
1.0047
0.995702
0.995703
0.99215
0.993807
0.99585
0.997562
0.997567
0.998774
0.997355
0.99194
0.993988
0.989902
0.989041
0.988617
0.993594
0.993622
0.991666
0.991682
1.00068
1.00394
1.00394
1.00424
1.00394
0.988114
0.988117
1.00394
1.00393
1.00393
1.00393
0.999962
0.999988
1.00452
1.00417
0.996166
0.996262
0.99543
0.995422
0.996672
0.996668
0.994317
0.994314
0.994795
0.995087
1.02283
1.02281
1.03541
1.03553
0.988681
0.988621
0.995748
0.995792
0.995833
0.995456
0.99546
0.996664
0.996664
0.993923
0.993921
0.992964
0.993123
0.996221
0.99623
0.995455
0.995452
1.04158
1.0426
1.00167
0.996118
0.995747
0.999679
0.999684
0.995166
0.995157
1.00081
1.00076
1.00367
1.00383
0.999827
1.00184
1.00456
1.00454
0.995079
0.995064
1.00203
0.999343
1.00401
1.00456
0.996774
0.996722
0.994716
0.99472
0.993343
0.993316
1.00326
0.997971
1.00227
0.999289
0.995098
0.996414
1.00112
0.99837
0.997694
1.00049
0.994914
0.994893
0.994893
0.994884
1.00031
1.00021
1.00126
0.998281
1.00263
0.999538
0.996474
1.00233
0.993629
0.994883
1.00088
0.996162
0.996549
0.998596
0.995029
0.99468
0.993401
0.993054
1.044
1.04611
0.995489
0.994484
0.994209
0.996643
1.00698
1.01082
1.0157
0.989813
0.990142
1.01426
0.995876
0.996218
0.996067
1.01305
1.01554
0.996674
0.996365
0.98748
0.985261
1.01139
1.01704
0.98965
0.989188
0.9856
0.996466
0.984292
0.985259
1.00881
1.00857
1.00538
1.00555
1.0097
1.00534
0.983527
0.989411
1.00555
1.01881
1.01087
1.00902
1.0055
0.982934
0.989886
0.99687
0.997098
0.990113
0.983966
1.00498
0.986753
1.00008
0.989217
1.00267
1.0007
1.03654
1.07456
1.06322
1.03204
0.994261
0.994616
0.99703
0.997114
0.993415
1.0969
1.04515