/*--------------------------------*- C++ -*----------------------------------*\
  =========                 |
  \\      /  F ield         | OpenFOAM: The Open Source CFD Toolbox
   \\    /   O peration     | Website:  https://openfoam.org
    \\  /    A nd           | Version:  7
     \\/     M anipulation  |
\*---------------------------------------------------------------------------*/
FoamFile
{
    version     2.0;
    format      ascii;
    class       volScalarField;
    location    "120";
    object      T;
}
// * * * * * * * * * * * * * * * * * * * * * * * * * * * * * * * * * * * * * //

dimensions      [0 0 0 1 0 0 0];

internalField   nonuniform List<scalar> 
238806
(
1.24167e-45
1.90412e-45
-1.73905e-47
2.37187e-50
-3.4742e-48
3.4664e-45
1.45053e-45
5.3325e-45
5.09533e-45
-6.87461e-47
-4.4519e-48
-1.1623e-47
2.55494e-47
3.83193e-47
3.67901e-51
3.1295e-51
-5.7252e-47
-4.16665e-47
1.65049e-43
1.17828e-43
3.17007e-45
2.57619e-45
3.40475e-49
-7.91741e-50
2.25131e-49
-3.11344e-47
-3.17395e-47
-1.20984e-47
-3.71377e-47
2.85599e-48
6.28723e-44
5.34889e-44
3.39302e-46
9.79124e-46
4.65779e-46
5.83244e-46
-8.8304e-95
-2.60364e-96
-1.77174e-47
2.10304e-46
1.09875e-46
6.60573e-49
4.80393e-45
5.00888e-45
1.18305e-43
1.52463e-43
-1.80789e-47
-4.23234e-47
2.14104e-45
4.08722e-45
1.45895e-44
1.03102e-44
4.24321e-47
6.06779e-47
1.85732e-71
1.40692e-71
-7.08257e-47
-7.57843e-47
-5.38433e-47
-9.28965e-47
-8.73563e-47
-8.72467e-47
-5.02872e-48
8.52646e-47
1.68681e-46
6.5236e-44
1.14194e-43
4.75366e-45
7.82001e-46
2.87887e-45
2.88754e-45
1.20674e-45
5.42031e-46
4.05257e-45
2.27986e-45
1.10463e-44
1.1832e-44
1.03094e-45
1.32461e-45
1.13826e-61
1.03954e-61
1.08446e-44
2.7068e-44
7.1816e-45
1.16322e-44
4.49517e-45
4.04614e-45
-2.76534e-48
-1.90427e-48
-7.91368e-48
-6.19724e-48
-6.49167e-47
4.76853e-48
1.12992e-44
2.59943e-45
2.64917e-46
3.07126e-46
6.75407e-46
-2.42472e-46
-7.38354e-50
1.4028e-43
1.06041e-44
9.21468e-45
4.49321e-44
2.24092e-44
3.30788e-46
2.19386e-46
3.51731e-45
2.20127e-45
1.12244e-45
4.54628e-46
1.33217e-44
1.58961e-44
8.0935e-45
1.14955e-44
1.62349e-47
2.62197e-47
1.8701e-97
6.44267e-98
1.57617e-97
-3.0132e-49
-5.29178e-50
9.10949e-45
5.80458e-45
4.00501e-45
1.74583e-45
1.11732e-49
-5.42552e-52
-5.44632e-48
-3.85272e-49
1.1023e-46
-3.18291e-47
-1.32924e-47
3.81203e-49
-8.04868e-47
-1.29434e-46
1.75419e-44
1.89046e-44
-1.35819e-50
5.29743e-50
2.56851e-49
1.02582e-49
3.14716e-45
1.35767e-44
-2.03569e-45
1.37017e-44
9.93181e-45
8.55337e-45
9.03969e-45
5.99992e-45
4.89514e-45
2.87726e-45
2.95702e-45
2.30165e-46
1.19372e-46
2.32748e-45
1.59862e-45
1.23041e-45
5.99209e-46
2.51378e-45
2.07576e-45
8.76375e-45
9.57535e-45
1.22405e-45
1.8469e-45
9.10672e-47
1.25423e-46
6.25984e-59
3.86159e-59
-1.4765e-93
-1.12332e-93
1.21245e-44
2.59709e-44
-5.21955e-57
-1.04024e-56
1.50089e-56
1.02669e-44
6.42242e-45
2.0973e-45
2.70477e-45
2.3976e-50
-5.52524e-52
1.17064e-49
-1.73247e-47
-2.27676e-47
-3.41557e-47
-2.95655e-46
-8.56237e-47
1.20281e-44
1.30633e-44
1.55321e-44
1.64871e-44
-3.96057e-46
-1.277e-46
-4.63925e-46
-5.50388e-46
-4.56594e-47
1.35423e-48
6.95809e-49
-1.04137e-46
1.17444e-47
8.31351e-44
1.43934e-43
3.36305e-45
-4.49897e-46
4.20372e-45
2.55743e-46
2.56559e-44
2.30737e-44
4.47082e-45
5.10754e-45
1.68196e-50
2.56528e-50
5.07144e-47
2.05987e-47
1.16999e-46
2.94592e-46
-5.45961e-47
3.84218e-47
2.29132e-45
3.83723e-45
1.36043e-44
1.16191e-44
1.71416e-44
1.71827e-44
1.46963e-45
9.67941e-46
1.63508e-46
1.98407e-46
1.18728e-53
2.23213e-53
7.12093e-70
-3.90143e-71
5.45027e-68
-1.52299e-67
-1.29846e-79
8.19088e-80
3.2165e-43
3.66985e-43
-4.64681e-45
-5.3244e-45
-3.81897e-50
1.16638e-51
-8.34155e-54
-5.13388e-54
8.06686e-45
5.37513e-45
3.87941e-45
3.03359e-45
3.47789e-45
2.93376e-45
7.76089e-46
7.55971e-46
-1.07247e-47
-1.36701e-47
-5.65931e-47
-7.29874e-47
-4.39462e-46
-5.20622e-46
2.35131e-45
2.42239e-45
1.33826e-44
1.44864e-44
1.9505e-46
1.65554e-46
3.79978e-45
3.8043e-45
-6.3893e-47
-7.57968e-48
-9.2748e-47
-4.5617e-47
1.81036e-45
-1.71967e-47
-3.12342e-46
-4.41219e-47
-1.44956e-46
1.29444e-43
7.34583e-44
1.63205e-44
9.47254e-45
9.68093e-45
1.21602e-44
5.66564e-44
6.3656e-44
1.16507e-45
5.7431e-45
1.45701e-45
3.23681e-45
3.38413e-48
5.31033e-48
-1.04272e-47
-8.30957e-48
4.54809e-47
1.96466e-47
5.16493e-47
1.43108e-47
2.40047e-46
6.58757e-47
1.1733e-46
-1.27866e-47
1.19647e-45
6.22206e-46
7.90396e-46
8.8959e-46
7.92541e-45
5.7676e-45
4.92786e-45
7.07968e-45
1.38148e-44
1.43893e-44
2.3868e-47
6.66517e-47
6.75329e-47
1.36578e-46
2.82985e-46
1.99867e-46
2.81132e-64
5.51171e-64
4.39528e-55
8.7417e-55
1.654e-59
7.06089e-60
6.03561e-62
1.60324e-62
8.49719e-69
-3.48311e-69
-7.52385e-81
6.13894e-79
2.61697e-97
1.23158e-44
2.36581e-44
9.78803e-49
7.27371e-48
8.19961e-74
-5.13032e-74
1.36398e-47
1.85823e-47
-2.12835e-55
-1.39245e-55
3.49213e-46
-1.6148e-46
4.50609e-45
2.12477e-45
3.25281e-45
2.5318e-45
2.72769e-45
2.18683e-45
-1.78465e-50
3.19214e-49
-4.2906e-49
1.80733e-49
-5.12252e-47
-3.49811e-47
-8.0081e-47
-2.59719e-47
8.54643e-45
7.42272e-45
1.12962e-44
4.53317e-45
4.1899e-45
2.95139e-46
2.2879e-46
1.83082e-47
7.15504e-46
-1.57954e-46
-2.35974e-46
4.87729e-49
-1.92794e-49
4.67536e-52
4.36506e-45
5.52485e-45
-1.55294e-46
-3.8427e-46
3.76864e-47
1.553e-47
-2.95081e-46
-3.31457e-47
2.60489e-44
7.32433e-45
-3.40783e-45
1.44937e-44
6.20231e-44
1.0043e-43
9.83201e-46
-1.7006e-45
2.20619e-45
-1.21329e-45
1.12655e-44
1.25764e-44
1.54568e-44
1.61593e-44
2.02988e-44
3.9259e-44
4.23018e-45
7.57769e-45
4.69067e-45
1.0714e-45
4.282e-45
3.97922e-45
2.3426e-45
2.07165e-45
1.48384e-50
-2.52328e-50
5.97253e-46
7.96661e-46
3.92832e-47
1.77982e-47
5.47213e-47
1.82232e-47
1.75251e-47
-6.82321e-48
-3.51927e-47
-2.23833e-47
1.11862e-45
6.14088e-46
1.20621e-45
1.05624e-45
6.83733e-45
5.11134e-45
9.03782e-45
6.32771e-45
4.71273e-46
6.69617e-46
6.25675e-46
8.03109e-46
5.04213e-47
1.13634e-46
3.92368e-46
-2.38564e-60
-5.17449e-60
1.46143e-53
2.77912e-53
3.51325e-56
1.7599e-56
1.09439e-56
2.53273e-56
8.85422e-71
-4.56719e-70
-9.07443e-67
-3.99164e-66
-2.23199e-68
-1.87401e-68
-4.08344e-87
-2.61872e-88
1.78574e-70
-1.1533e-69
-1.07214e-45
-1.54074e-45
-1.14491e-45
-4.78708e-47
2.81271e-47
1.52257e-50
-1.10639e-49
1.06637e-48
-3.45356e-49
2.95463e-71
2.35965e-71
2.22899e-49
1.6109e-49
2.06284e-55
4.56189e-55
1.17293e-56
1.95423e-57
-1.39499e-51
2.29557e-53
-2.17697e-46
1.07599e-46
8.13396e-45
7.84326e-45
2.14116e-45
9.15796e-46
4.0813e-45
1.29134e-45
1.55795e-45
1.15443e-45
-2.81705e-48
-1.46598e-48
9.78024e-51
8.15858e-50
-3.56648e-46
-2.54174e-46
-3.15892e-46
1.06167e-44
2.80321e-45
1.84533e-44
1.61682e-44
2.34444e-44
2.50685e-44
1.27582e-46
1.17024e-46
5.01626e-46
3.9789e-46
4.46358e-46
3.63389e-46
1.47827e-45
1.67982e-45
2.80811e-47
2.05442e-46
8.03188e-49
-2.33485e-46
-1.9578e-46
-1.64099e-47
-2.7283e-49
5.90154e-48
3.34116e-48
2.58695e-48
-8.32214e-47
-4.83151e-46
1.16422e-44
9.23049e-45
1.74827e-44
-7.61605e-47
1.17289e-43
6.66208e-44
1.1772e-43
1.28659e-43
1.82004e-44
7.88856e-45
9.85478e-45
1.50765e-44
1.73272e-44
1.51283e-44
3.36902e-44
2.91521e-44
4.00891e-44
4.72297e-44
1.15217e-45
5.28385e-45
7.75612e-45
5.28402e-45
9.06636e-46
3.48471e-45
2.55453e-45
1.15147e-45
2.47485e-45
2.31397e-45
-2.39418e-50
-1.79618e-50
-1.81299e-51
1.01249e-49
1.14142e-45
1.59458e-45
2.73469e-46
4.18599e-46
9.15133e-47
1.65387e-46
1.28843e-46
2.59771e-46
5.4155e-47
2.02705e-47
3.28798e-47
1.30337e-48
-1.92849e-47
-2.06094e-47
1.82861e-45
2.73063e-45
1.01099e-45
5.80438e-46
1.4748e-45
1.03816e-45
2.82487e-45
2.93463e-45
5.78969e-45
4.43386e-45
6.83205e-45
1.01091e-44
2.2878e-45
3.30331e-45
4.74312e-46
5.66693e-46
1.07179e-45
8.72247e-46
6.96846e-46
5.31079e-46
3.74067e-46
3.00249e-46
1.37934e-46
9.28452e-47
1.7341e-70
6.26177e-70
-1.35868e-64
-5.53455e-65
5.23273e-55
1.05123e-54
1.7907e-59
7.86005e-60
9.03396e-60
2.17499e-59
1.26985e-66
5.99414e-67
6.48482e-69
-1.67616e-68
-5.78041e-66
-4.28386e-66
9.4269e-69
1.09363e-68
-8.93424e-89
1.96508e-89
6.52017e-96
6.65355e-97
-7.68866e-74
-4.65746e-74
-3.65468e-80
9.53007e-81
-8.92386e-47
-3.00751e-48
-5.27153e-45
-4.45444e-46
-2.78565e-47
-2.7098e-47
4.40875e-45
8.96895e-46
-9.42142e-46
-9.55015e-46
6.44969e-48
1.03024e-47
2.08619e-70
4.61655e-70
3.05393e-89
-1.17406e-88
-2.20095e-55
-3.6799e-56
-2.32686e-53
-1.43049e-53
2.52695e-58
3.70829e-58
6.48817e-57
1.99043e-57
1.65926e-57
3.42196e-57
5.76446e-46
-7.39637e-47
2.26916e-45
2.35814e-45
1.13668e-44
1.16782e-44
5.7956e-45
6.60489e-45
2.5096e-45
1.03836e-45
2.88971e-45
3.08302e-45
1.63943e-45
1.55642e-45
7.11372e-52
-1.00647e-52
1.22601e-46
1.69947e-46
-1.05395e-47
-1.81078e-47
-9.9431e-48
-7.47389e-47
4.02034e-48
8.08797e-45
2.53541e-45
-3.18244e-46
-1.5448e-46
1.65729e-44
1.47966e-44
2.03225e-44
2.18898e-44
1.02808e-46
9.7548e-47
1.14889e-45
9.25692e-46
2.40692e-46
1.95543e-46
3.81715e-45
3.79588e-45
1.33254e-45
1.27669e-45
-4.50445e-48
-4.72347e-49
-3.42718e-48
5.95571e-49
1.04876e-46
5.19087e-46
-7.12777e-46
-2.94798e-46
-1.31707e-45
6.99152e-45
8.14329e-45
-3.52008e-46
-2.08985e-46
6.34884e-49
-1.55232e-47
2.74582e-44
2.94264e-44
1.25528e-44
-2.83029e-45
1.07873e-43
6.44286e-44
-3.62922e-46
-1.96011e-45
2.10883e-44
1.97326e-44
1.817e-44
2.02923e-44
1.42205e-44
3.0396e-44
3.04362e-44
3.37505e-44
2.86655e-44
5.52562e-44
6.42686e-44
6.24106e-45
3.23213e-45
2.1246e-45
2.60981e-45
1.56722e-45
7.21139e-46
1.01746e-45
4.11909e-45
2.77006e-45
2.58153e-45
1.29726e-49
-9.86399e-49
-2.86115e-49
-2.97587e-49
1.98517e-50
7.12106e-51
-1.4989e-48
-8.12973e-49
5.28243e-46
8.87315e-46
9.36033e-46
1.28531e-45
3.34144e-46
5.20539e-46
1.35109e-46
7.65388e-47
1.32737e-46
2.83042e-46
4.45021e-47
8.61102e-48
-4.32293e-49
-1.46642e-47
2.03707e-45
3.13565e-45
1.61329e-45
1.407e-45
1.96638e-45
1.64693e-45
9.4184e-45
8.40446e-45
9.02116e-45
6.35726e-45
6.89819e-45
7.65084e-45
1.16847e-45
2.80963e-45
8.93743e-46
9.36713e-46
1.1159e-45
3.23798e-46
4.70102e-46
2.41557e-46
4.88598e-46
2.29335e-46
3.3096e-46
6.76672e-47
1.04326e-46
1.33744e-46
1.72735e-46
2.14191e-69
-1.80064e-68
3.37857e-67
-1.13663e-67
4.87002e-59
5.32244e-59
8.53074e-55
4.66853e-55
2.88393e-56
5.8933e-56
9.31476e-57
2.24288e-56
1.26644e-70
-2.59799e-70
8.18345e-67
-1.09236e-67
-1.24858e-63
-3.85087e-64
-3.22464e-67
-2.74121e-67
-1.95399e-66
-1.12018e-65
-1.28557e-66
-4.17854e-66
-1.00225e-67
-4.56841e-68
-7.11033e-79
-1.49549e-78
1.88269e-89
3.88528e-89
-5.38127e-90
-2.9912e-91
-1.09713e-96
1.42234e-97
-7.32524e-93
-1.59918e-93
-5.81379e-74
-1.17693e-73
1.2392e-96
1.85122e-96
1.29715e-96
-4.29384e-46
-2.89006e-46
9.19635e-45
1.57384e-44
4.10216e-46
8.53303e-44
7.19182e-44
-1.83188e-44
-1.84158e-44
-6.32039e-47
-6.46399e-47
5.82468e-45
9.61656e-45
1.74856e-45
5.37493e-45
-7.87757e-46
-1.36268e-46
-3.36143e-46
-7.80972e-46
-1.2626e-47
-3.2419e-48
8.06851e-80
-2.34662e-81
1.99185e-71
2.79315e-71
1.56038e-73
1.26895e-73
-9.63219e-87
-2.22574e-87
4.88797e-50
7.69032e-50
4.06823e-49
3.03605e-49
5.08683e-52
3.40251e-52
-8.74999e-54
-5.30149e-54
-4.32631e-56
-2.82882e-56
-4.47656e-57
-5.04858e-56
-9.44607e-57
-1.55088e-55
-1.08821e-55
4.84955e-46
3.27193e-46
1.86008e-46
-1.90903e-46
4.8424e-45
4.52299e-45
2.76825e-45
8.70949e-45
9.07925e-45
7.33366e-45
6.19121e-45
6.22264e-45
6.25082e-46
1.29512e-45
3.22948e-45
4.91573e-45
8.33354e-46
8.20992e-46
-3.60147e-49
1.33933e-49
3.7496e-46
4.06428e-46
-1.23329e-47
-2.74276e-47
-8.55111e-47
-3.92363e-48
2.74497e-45
9.05547e-45
-3.38402e-46
-1.50885e-46
2.75279e-45
2.2388e-45
2.1781e-44
2.01216e-44
1.58282e-46
1.39947e-46
7.40274e-46
5.87513e-46
2.99512e-46
1.12732e-45
1.87193e-45
2.06921e-45
3.83862e-45
3.84372e-45
-6.87873e-48
-2.65822e-47
-3.89829e-48
1.42201e-48
1.6223e-49
-7.26645e-50
5.14342e-46
7.84729e-46
-1.00461e-46
-3.61778e-47
-5.34883e-48
2.06127e-48
4.184e-46
-1.61282e-46
-1.12522e-46
-4.27638e-46
-5.84279e-47
3.23241e-47
9.82593e-44
5.95183e-44
1.24443e-44
-2.35446e-45
8.79779e-45
1.73355e-44
7.35233e-45
1.30454e-44
2.4774e-44
3.8204e-44
4.2576e-44
1.792e-44
1.55134e-44
6.13351e-45
1.30065e-45
5.17632e-45
6.89644e-45
8.1431e-46
2.90348e-45
3.46553e-45
3.53486e-45
-9.6661e-50
-9.6123e-50
-8.1344e-51
4.29698e-51
4.34501e-50
6.10569e-50
-4.13703e-48
-4.62769e-48
-4.46711e-48
1.36505e-45
1.94421e-45
6.13268e-46
4.6559e-46
1.06253e-46
1.97698e-46
2.96168e-46
1.29432e-46
2.86996e-47
1.86019e-46
1.93685e-45
1.35306e-45
1.15889e-45
9.93893e-46
2.24752e-45
2.18326e-45
4.85031e-45
4.55901e-45
9.96975e-45
1.14159e-44
5.38612e-45
6.0435e-45
1.72535e-46
2.41873e-46
5.85814e-45
2.36151e-45
6.91585e-46
5.89458e-46
1.36083e-45
1.28339e-45
6.35129e-46
1.95117e-46
3.82623e-46
1.4959e-46
2.21825e-46
4.17334e-47
6.51792e-47
1.29593e-70
-1.34313e-68
1.31522e-69
-6.65321e-69
-1.25587e-66
8.1825e-66
-2.11547e-65
1.3239e-64
2.12912e-54
4.40042e-54
8.64312e-55
1.62599e-54
3.99576e-56
8.30487e-56
1.12807e-58
3.51555e-59
5.15514e-59
3.81911e-59
3.50703e-68
2.43704e-67
5.5447e-67
-3.20463e-68
5.06631e-64
1.49835e-62
1.69681e-68
1.13823e-68
7.43368e-69
9.46795e-70
6.69119e-67
1.09601e-68
-2.1446e-65
-2.97507e-65
-7.64399e-66
-1.91196e-65
-4.15793e-68
-7.18582e-68
1.08665e-66
1.24086e-66
1.41028e-68
-2.26571e-68
3.55036e-70
2.33718e-71
-1.22968e-88
-1.67855e-87
3.753e-91
1.16461e-90
4.27186e-96
8.90845e-97
-2.21107e-90
2.63668e-90
5.80805e-80
4.82234e-80
2.94563e-74
1.41941e-74
-4.40103e-79
-4.62816e-80
2.61732e-81
-4.70846e-83
4.47849e-44
4.86167e-44
6.45855e-44
-2.8583e-46
-7.99437e-47
-1.79123e-45
-7.21963e-46
-2.86979e-47
-4.35864e-47
-7.56034e-51
-2.28682e-51
2.38658e-43
2.24941e-43
-7.25478e-48
-1.03729e-47
-5.49233e-47
-3.52118e-47
2.92977e-45
-6.57139e-47
-4.05161e-48
1.4236e-47
-5.4133e-47
2.13252e-47
-4.02574e-46
-7.33769e-46
4.27115e-50
-2.63369e-49
6.40002e-86
9.48969e-86
1.2236e-69
1.25619e-69
3.19643e-72
3.72882e-72
4.32359e-71
3.94371e-71
-8.05415e-85
-4.02031e-85
5.20488e-83
2.71175e-83
1.61815e-47
2.23942e-47
1.80573e-56
4.56605e-56
1.94526e-52
4.01973e-52
1.62021e-47
2.23921e-47
7.62491e-50
1.04761e-49
-1.33834e-53
-2.12936e-53
2.25361e-54
1.5531e-54
1.50519e-57
2.12903e-57
4.19351e-55
3.51581e-55
-1.5339e-56
2.50608e-51
2.29628e-45
2.41987e-45
2.71966e-45
3.20373e-45
7.14993e-45
6.97949e-45
4.26104e-45
4.99287e-45
1.54216e-45
7.18628e-46
7.65815e-46
6.67611e-46
2.33283e-45
3.13126e-45
1.36808e-49
1.26015e-49
1.23905e-49
-5.66564e-49
-2.28079e-48
2.41759e-46
3.08763e-46
-1.27244e-47
9.98846e-49
1.20521e-47
-2.23484e-47
-1.82063e-46
-5.30683e-47
-2.50406e-46
-4.98789e-47
-5.08451e-47
3.83391e-45
3.50334e-45
1.54319e-44
1.31835e-44
9.74212e-46
8.70695e-46
3.62754e-46
2.46863e-46
6.31302e-46
7.91945e-46
4.82373e-46
-9.47631e-47
-1.25949e-46
-1.70589e-47
-8.25444e-47
-5.6486e-47
-4.8331e-47
-1.52211e-47
-3.82639e-47
-2.51802e-48
-8.52038e-48
-1.32886e-48
2.14629e-45
4.50803e-45
3.14295e-45
1.56122e-45
1.88229e-45
3.64154e-47
2.00263e-46
-2.46768e-47
-4.23702e-48
-6.72054e-46
-1.66568e-45
6.68699e-47
8.52959e-44
5.60674e-44
6.17897e-44
1.06783e-43
2.43107e-44
3.57655e-45
1.99552e-44
1.10527e-44
1.84511e-44
2.1333e-44
1.48752e-44
1.35773e-44
4.66099e-44
4.96542e-44
4.06986e-45
1.89629e-45
1.24645e-45
6.11998e-45
9.13459e-46
2.00794e-45
-5.2015e-49
-3.64263e-49
-7.13197e-49
-7.96557e-49
-6.09284e-50
-8.54126e-50
-8.43524e-52
-1.24604e-51
-1.04228e-47
-8.6067e-48
-1.41572e-48
-3.34468e-50
7.59248e-46
4.65753e-46
7.53988e-46
1.01963e-45
9.56125e-47
2.76288e-46
4.74007e-46
6.49127e-46
9.4737e-46
9.41471e-46
3.61132e-45
3.79312e-45
4.81517e-45
3.76888e-45
4.28005e-45
2.96265e-45
4.17453e-45
4.72553e-45
2.98078e-46
2.35568e-46
1.88627e-45
4.61334e-45
3.8802e-46
4.65933e-46
1.66842e-45
1.52696e-45
7.93361e-47
2.98584e-47
1.58517e-46
3.01775e-46
1.56531e-46
9.97629e-47
-3.9734e-68
6.69189e-68
-6.86749e-67
2.35889e-66
2.30238e-65
5.77e-65
1.55989e-63
-8.22434e-64
2.01529e-60
1.66003e-59
1.55356e-53
2.02719e-53
3.01989e-54
1.53253e-54
2.51082e-55
1.327e-55
1.18313e-55
6.88888e-56
6.83556e-57
1.74272e-56
1.55095e-58
3.74488e-58
-1.11539e-72
-2.94447e-71
4.91546e-67
6.50553e-68
-7.03505e-63
-3.74114e-63
8.64176e-62
7.9667e-62
3.94076e-63
4.39123e-63
-1.80471e-63
-8.81851e-71
9.93804e-71
-2.09423e-69
-8.61564e-69
-1.30385e-69
-2.00371e-66
-1.4329e-66
-5.2559e-66
-1.00914e-65
-3.48034e-65
-4.09145e-65
-7.79127e-66
-1.97201e-66
-1.66469e-66
-8.14138e-67
5.5814e-68
3.0408e-68
9.37874e-67
1.78552e-66
6.06198e-68
-1.07972e-68
3.29996e-73
4.84669e-74
-8.14223e-70
-6.38445e-69
-3.58081e-85
-2.94789e-85
3.9951e-88
-4.43608e-88
3.40065e-90
-1.09951e-89
4.62022e-94
3.99149e-95
-4.93552e-97
9.38387e-98
-1.17096e-94
-3.75696e-95
2.66715e-80
-1.13645e-80
1.43257e-73
-4.76378e-74
-1.01069e-77
7.31849e-78
-3.1648e-81
-1.43312e-80
2.19257e-80
-1.35321e-80
3.22747e-84
1.61652e-84
-6.04232e-97
-2.8154e-97
9.62809e-45
2.57449e-44
-3.79431e-46
-6.87266e-46
-2.44816e-45
-2.31759e-45
-4.42778e-46
-1.48108e-46
-3.64397e-45
-3.04709e-45
-2.24382e-45
4.38399e-45
2.80452e-45
8.93781e-43
9.81818e-43
-2.62592e-48
1.06437e-48
-5.00854e-48
-9.95622e-47
-1.33912e-46
-7.32365e-46
-5.70643e-46
2.35932e-46
-5.00263e-46
-3.00112e-45
-1.03953e-46
-6.8293e-47
1.66409e-47
6.70376e-48
1.81025e-49
5.16259e-49
-2.47894e-48
-1.09778e-47
-4.63054e-74
-2.30416e-73
-4.84224e-84
-3.02577e-84
-2.65019e-76
2.5725e-76
3.00417e-73
2.14311e-73
1.00934e-72
9.77178e-73
-1.40048e-84
8.14142e-85
5.70895e-84
7.84351e-84
1.68637e-48
2.52002e-48
7.91347e-48
1.10934e-47
9.31855e-56
3.8341e-56
-2.33039e-61
-7.36601e-61
2.27083e-60
-1.70383e-59
1.5924e-57
2.31445e-57
1.4146e-49
1.8753e-49
3.22494e-53
2.10721e-53
5.36405e-56
3.03577e-56
4.38918e-54
2.51431e-54
5.83777e-58
9.40105e-58
-4.41531e-55
-6.39963e-55
3.21608e-45
3.28566e-45
7.98214e-46
3.09605e-47
1.26129e-44
1.39873e-44
7.86124e-45
8.06137e-45
5.36114e-45
5.44297e-45
1.82312e-45
8.1619e-46
6.36472e-46
1.68913e-45
2.65665e-45
3.58421e-45
-8.03765e-48
-9.72537e-48
-6.15566e-48
5.27072e-47
-1.9809e-47
3.94134e-47
3.4755e-46
1.66614e-47
4.83659e-47
-1.95113e-46
-1.68454e-46
1.20508e-47
5.60806e-47
1.11171e-44
1.21716e-44
2.19011e-46
1.51111e-46
3.14227e-46
4.63223e-46
4.91108e-45
4.99574e-45
3.83968e-45
3.84987e-45
-1.90868e-47
2.40489e-46
-2.48794e-47
-1.65114e-47
-2.18916e-47
-4.38775e-47
-2.92324e-47
-8.60725e-47
-1.15344e-46
-2.77995e-47
-3.61902e-47
-4.26417e-47
-1.01205e-47
2.51579e-49
4.18216e-50
2.41547e-51
-8.6356e-52
4.39429e-45
8.54855e-45
3.81423e-45
1.47289e-46
8.49428e-46
-1.00391e-46
-8.06218e-47
-6.60407e-47
-4.35285e-47
-7.37385e-47
2.07038e-46
-4.81605e-46
-3.35517e-45
-1.20207e-45
9.2766e-44
5.92079e-44
2.13461e-44
1.42041e-44
4.74745e-45
5.23362e-45
2.4418e-44
3.42292e-45
1.12282e-44
2.40759e-44
1.32089e-44
2.57792e-44
2.30129e-44
1.6226e-44
1.56878e-44
4.96843e-44
4.31235e-44
2.47491e-45
5.07352e-45
-4.69965e-49
-1.02067e-49
-8.70544e-50
-2.61392e-50
-7.70102e-49
-6.66123e-49
6.7305e-50
-2.17822e-49
8.26242e-50
3.7362e-50
1.1633e-50
-7.12998e-51
3.91356e-49
3.48197e-49
6.0135e-49
-2.90683e-48
6.35196e-46
3.9942e-46
8.49112e-46
6.1193e-46
1.26116e-45
1.27916e-45
1.51901e-45
1.28821e-45
5.67507e-45
6.12867e-45
3.93765e-45
3.14359e-45
5.51842e-45
3.82678e-45
9.23167e-46
2.18701e-45
1.49136e-45
3.61012e-45
2.04318e-45
1.79474e-45
9.47989e-47
3.83325e-47
1.8019e-53
7.95274e-54
2.3833e-65
4.65452e-66
3.05908e-65
1.01189e-65
-4.43481e-66
-2.17039e-66
-8.38857e-65
-4.5538e-65
-3.5854e-63
-2.14278e-63
1.0572e-61
2.69728e-62
2.52025e-56
1.06699e-56
2.47176e-54
1.71623e-54
4.68981e-55
1.12977e-54
1.29308e-54
2.46879e-54
5.60081e-56
1.20609e-55
2.33409e-55
4.52685e-55
1.69437e-55
4.59104e-57
1.22872e-56
2.6079e-57
8.66366e-57
4.19076e-57
1.94535e-58
8.68598e-59
-4.55731e-74
-1.16081e-74
-7.61858e-71
-1.47896e-70
-5.81104e-67
-1.18594e-66
-8.10336e-71
2.27113e-70
-2.52643e-63
-7.17385e-63
-1.37206e-62
4.91776e-63
-5.48332e-64
9.99748e-66
1.1412e-62
1.17944e-62
9.24092e-65
1.81096e-64
1.41805e-68
2.68371e-70
-4.36474e-68
-3.96582e-68
2.51742e-68
1.97926e-66
-5.39793e-66
-6.30414e-67
-6.22813e-65
-2.45087e-65
3.832e-66
5.10137e-65
-1.75797e-66
-3.06874e-66
-4.58955e-67
-6.05644e-67
2.38162e-67
2.46336e-67
-4.40214e-67
-2.37827e-67
1.28703e-68
-2.58234e-68
3.83944e-76
8.92492e-77
5.03813e-70
5.23982e-70
-2.13665e-69
2.10801e-69
1.11555e-69
6.49191e-77
-2.20668e-76
2.36402e-88
4.72172e-88
-1.09131e-91
1.3951e-91
1.12545e-93
-1.45524e-93
-9.68111e-93
-5.48423e-93
-1.26179e-93
-1.25492e-92
-1.38417e-95
-1.8427e-95
1.30273e-95
-8.58175e-97
-7.66022e-93
-6.90141e-93
-4.20002e-94
-7.27536e-95
4.53268e-70
-1.89959e-69
8.19599e-75
2.73379e-75
1.2867e-78
-6.3501e-79
-5.57466e-78
-2.39722e-78
8.42121e-83
-1.44579e-81
5.11424e-80
1.45929e-79
1.95321e-83
2.26412e-84
-1.21262e-88
-1.89359e-88
4.18531e-97
-7.30923e-98
2.82636e-49
3.92935e-49
-5.82848e-46
-8.99367e-46
-8.82261e-46
-9.17111e-46
-1.20665e-45
-6.72542e-46
-6.54655e-46
-4.02631e-46
7.82052e-47
-1.90369e-45
3.84744e-46
3.19903e-46
6.57943e-44
6.04783e-44
8.06823e-43
6.70531e-43
2.06226e-43
2.78846e-43
-2.59608e-47
-1.96437e-47
1.16216e-44
2.01164e-44
-2.66851e-46
1.94062e-46
-3.39486e-45
-3.47991e-45
-2.53855e-45
-1.96048e-45
-2.54964e-45
-2.68448e-45
9.09224e-47
-1.73817e-46
-5.21878e-46
-2.5628e-46
-6.39174e-56
-1.95208e-55
-2.39587e-46
-4.42606e-46
-1.02885e-55
-2.68395e-55
-3.41685e-67
-4.11268e-67
-3.28087e-79
-8.38139e-79
-5.20658e-84
-5.76931e-84
-3.96975e-76
-1.18284e-75
-1.00082e-72
8.8243e-74
-2.68529e-74
5.7234e-75
6.56812e-71
7.46457e-71
8.36015e-73
6.13734e-73
4.84064e-78
-1.44713e-77
5.87099e-88
5.40479e-88
9.51027e-85
1.07879e-84
-6.92592e-89
1.74072e-89
1.5699e-47
2.18152e-47
1.53709e-47
2.1089e-47
1.49236e-52
8.57926e-53
1.8856e-52
1.03765e-52
1.25903e-60
-6.76913e-60
-1.47066e-59
4.69954e-57
2.11832e-57
5.14618e-48
3.58844e-48
2.06539e-51
1.50441e-51
2.23243e-52
1.43728e-52
-6.88857e-55
-4.05325e-55
7.62253e-59
1.01423e-58
-2.52427e-52
-2.2225e-52
2.27253e-55
1.81336e-55
-1.0567e-56
-6.67406e-57
-3.65088e-53
-1.58524e-54
5.47523e-45
5.26911e-45
1.10712e-45
1.60548e-46
1.07653e-44
1.13078e-44
7.76512e-45
7.54301e-45
4.58052e-45
4.73873e-45
2.94758e-45
1.20752e-45
1.70557e-45
1.70176e-45
-4.31093e-51
5.99492e-53
-3.15247e-48
7.52178e-47
2.8498e-45
9.88409e-45
1.93707e-46
2.82763e-46
4.74725e-45
2.25928e-45
2.40783e-45
-2.07994e-46
-1.77048e-46
-8.22662e-48
1.92613e-49
7.26323e-49
-2.47154e-47
9.10843e-47
-3.22721e-47
-1.70303e-47
2.11609e-49
3.13876e-49
-5.38353e-51
-6.15201e-51
-1.36056e-51
4.00867e-45
8.63579e-45
-6.4441e-47
-2.5765e-46
-1.39169e-46
-1.10303e-46
-3.38203e-47
-1.25475e-45
-1.46071e-46
-3.17841e-46
-3.18537e-45
6.90187e-44
7.96545e-44
6.891e-44
2.12898e-44
2.83552e-45
2.37021e-45
2.35046e-44
7.69582e-45
2.10449e-44
5.91941e-45
2.39393e-44
9.03629e-45
2.5249e-45
3.6972e-44
3.371e-44
1.62965e-44
9.1116e-45
2.93944e-44
2.78119e-44
-2.39689e-48
7.49946e-49
6.45676e-48
6.90173e-48
1.71957e-49
-2.21432e-49
-1.85396e-49
-2.34915e-49
-1.44569e-49
4.81472e-50
2.71704e-50
-3.96751e-53
-1.73737e-51
1.98122e-49
-4.31901e-48
-1.8957e-48
-6.20059e-50
3.65889e-45
3.21121e-45
1.11933e-45
7.96107e-46
8.72664e-46
7.5623e-46
6.96157e-45
7.64964e-45
7.32693e-46
1.70207e-45
1.18123e-45
7.67774e-46
-4.93285e-58
-2.50764e-58
1.83253e-51
1.22591e-52
-4.70915e-67
-2.79229e-66
8.49903e-56
1.68865e-55
-2.28868e-60
-9.63681e-61
-6.30839e-68
4.39403e-67
-1.03905e-64
-4.84876e-65
-7.74309e-66
-2.90561e-66
-2.35844e-65
4.20806e-62
-1.23718e-60
7.60586e-61
1.95394e-60
4.21075e-63
-1.63824e-62
-6.3112e-61
-8.03641e-61
1.14454e-54
2.38923e-54
9.68031e-54
7.37255e-54
8.6082e-54
9.00695e-54
5.54205e-54
1.0051e-53
4.66093e-54
2.16653e-55
2.54146e-55
3.39382e-55
6.67804e-55
3.89652e-57
1.06605e-56
4.62447e-57
3.7675e-57
7.79401e-60
2.12971e-59
1.20287e-58
2.76335e-58
1.30216e-74
6.19343e-75
-1.2083e-70
2.09404e-71
-8.00073e-69
-2.39412e-69
-2.44805e-67
3.53016e-66
4.35437e-67
6.12037e-67
-1.53431e-66
-1.35167e-63
-5.89774e-63
-5.51693e-63
-4.28338e-63
2.27932e-61
2.01562e-61
-1.34603e-62
-1.48058e-62
2.56643e-63
8.65268e-63
4.07655e-64
5.52843e-64
-4.24454e-65
-2.78652e-71
-5.91549e-71
-4.85479e-69
7.68914e-70
-1.89269e-66
-7.52178e-67
-7.53477e-67
-1.0836e-66
-1.37423e-65
-8.72994e-66
-9.24393e-65
-2.21933e-64
-1.09782e-65
3.87316e-67
-1.29566e-65
2.29892e-67
1.4315e-68
1.02048e-66
-4.1531e-68
9.04768e-68
-1.08175e-67
-4.11845e-67
3.39743e-69
-2.46039e-68
-4.4492e-68
-9.79611e-75
-5.94463e-75
1.26764e-70
1.79901e-70
2.02375e-69
1.60534e-69
-1.97155e-71
-1.82006e-71
2.18139e-77
7.07687e-78
6.68168e-88
-2.63862e-88
3.58692e-92
2.2628e-93
3.14888e-93
9.56421e-91
2.33956e-90
-4.84941e-89
-1.00769e-88
7.46991e-90
1.47804e-89
3.62244e-92
-1.28635e-90
-1.11138e-94
-3.3532e-94
-5.60093e-97
8.99603e-97
-2.89363e-96
3.03003e-95
-1.59488e-93
-1.81292e-93
4.01315e-93
7.85189e-93
4.85741e-90
1.02812e-90
9.9332e-71
-2.45193e-71
-2.7227e-73
-1.48556e-73
-1.49565e-75
1.65174e-76
-9.9398e-75
-9.01119e-75
3.65079e-75
-1.49037e-74
-3.94332e-78
-2.76057e-77
2.58606e-79
1.47437e-78
-1.5212e-84
-3.37424e-84
-1.54395e-80
-5.36546e-80
6.27398e-81
1.55832e-83
-6.96054e-84
-6.12966e-84
-5.10033e-91
-6.02965e-91
2.7487e-97
7.21751e-97
1.33168e-97
1.63692e-47
1.13157e-47
9.3064e-44
7.48091e-44
7.63504e-46
5.22533e-45
3.15566e-45
-4.5126e-46
-2.67445e-47
1.76266e-47
-1.56658e-45
-1.76085e-46
-1.79023e-48
3.55156e-47
-2.47307e-50
-1.17971e-50
4.66556e-45
6.98121e-45
2.17891e-43
1.76876e-43
1.42332e-43
4.95819e-45
7.07192e-43
7.13139e-43
4.37366e-43
6.4372e-43
-6.28939e-45
-2.67436e-47
3.04052e-46
1.01148e-45
1.07297e-44
1.73929e-44
-2.42353e-46
-2.85856e-46
-2.59388e-46
1.98873e-45
-2.34682e-45
3.3476e-45
-4.29816e-45
-8.45552e-45
-1.27582e-45
-2.16586e-45
-5.09219e-46
-1.39563e-42
-1.7518e-42
-1.28638e-42
-3.48099e-51
-1.35648e-50
1.18842e-50
-1.00392e-46
-3.80359e-47
3.03941e-58
1.24493e-58
-3.51618e-61
-9.88882e-62
-1.60098e-74
-3.20114e-74
-4.49132e-78
-1.13263e-77
-8.31789e-79
-1.8139e-78
1.28434e-83
2.90863e-84
-4.47895e-80
-2.52335e-81
-1.18131e-76
-2.27514e-77
-2.72085e-68
-7.97035e-69
-2.44967e-74
-6.35787e-75
5.15402e-72
-2.98957e-73
-1.1006e-70
-1.65357e-71
-1.75183e-73
-1.59587e-72
8.71112e-74
8.38595e-74
3.73821e-82
3.26486e-82
-1.23071e-87
2.04163e-87
6.06137e-90
-3.1997e-92
-1.19483e-85
-3.77282e-86
2.16174e-87
-6.22377e-88
-2.93343e-89
-4.60541e-90
3.26091e-91
-5.8043e-92
7.8397e-48
1.11645e-47
9.9124e-48
7.12496e-48
1.3367e-52
2.32857e-52
8.56597e-53
1.56078e-52
1.26177e-52
3.53973e-52
-8.92023e-56
-6.30635e-56
-7.04112e-56
-3.92255e-55
1.99588e-49
1.29985e-49
3.19843e-51
-1.11398e-51
8.09636e-52
5.19949e-52
4.79403e-53
6.94638e-53
9.24297e-57
4.64583e-57
1.34897e-58
1.80492e-58
3.34376e-53
4.35804e-53
-1.38438e-53
-1.14795e-53
3.14259e-55
2.7295e-55
-4.61404e-57
-3.38602e-57
6.06734e-48
5.021e-48
4.80535e-45
7.14695e-45
5.40139e-45
1.38015e-45
1.57602e-45
9.98882e-45
1.01077e-44
3.6067e-45
3.92906e-50
2.95004e-48
3.04304e-48
2.19833e-45
1.18815e-45
1.96666e-45
9.47038e-46
1.87647e-46
3.70779e-46
3.4232e-46
-1.52963e-46
-7.29789e-47
-2.41329e-48
-6.044e-47
-2.02267e-49
-1.12852e-50
2.76218e-52
-9.9424e-48
-8.20758e-49
1.70177e-51
7.52642e-45
7.18421e-45
-1.48236e-46
-1.25283e-46
-1.04579e-45
-4.59948e-46
-1.46164e-45
-1.81006e-45
-9.91472e-47
-8.6806e-46
-2.36675e-46
7.64202e-44
8.82818e-44
2.42387e-44
5.3598e-45
2.89175e-45
2.40394e-44
1.85579e-44
6.969e-45
5.53179e-45
1.5288e-45
4.50413e-45
2.45089e-44
2.80411e-44
3.1298e-44
-9.0436e-49
-1.35326e-48
6.77817e-48
1.90416e-48
-2.35715e-49
-2.76963e-49
-5.09888e-49
-3.10169e-50
-1.39663e-51
6.52813e-51
-5.70065e-48
2.45314e-45
2.80772e-45
2.53538e-45
1.76172e-45
1.66877e-45
1.70451e-45
3.72767e-46
3.11977e-46
-2.06454e-51
-3.14661e-51
6.85903e-48
8.0763e-48
4.20861e-51
2.54073e-51
-9.36379e-66
-5.7031e-66
-4.215e-69
-1.11662e-69
1.8998e-55
3.78816e-55
2.34125e-63
9.85333e-64
2.96455e-60
8.31192e-60
1.52579e-60
3.57526e-60
-2.8718e-67
-1.75827e-67
-2.42976e-66
-1.07558e-66
4.77731e-67
-1.9368e-65
-1.15e-65
-5.37547e-66
9.23893e-61
1.89864e-60
2.69145e-60
6.47037e-60
1.86792e-61
5.26174e-61
1.60671e-62
1.38649e-62
2.17878e-55
4.79298e-55
5.40003e-55
1.15013e-54
5.2832e-54
1.10542e-53
1.29761e-54
5.76051e-55
2.43436e-53
2.64732e-53
6.2732e-54
7.65402e-54
4.68508e-54
2.70496e-54
1.04658e-55
4.95638e-56
1.6779e-57
1.37339e-57
1.04921e-56
2.30275e-56
2.50611e-59
9.73658e-60
1.45157e-58
3.41053e-58
-9.73543e-74
2.65764e-74
2.8491e-75
-9.36345e-76
-7.95365e-71
9.08009e-72
-2.09475e-67
-4.3269e-67
-9.14262e-66
-1.8625e-65
2.1519e-67
1.84436e-66
-2.93628e-67
-3.06441e-67
2.58065e-66
-2.33656e-65
-8.21189e-63
3.41379e-63
-1.22832e-62
-1.67487e-63
-2.85841e-61
3.22895e-61
-5.62022e-64
-8.49939e-65
-3.71891e-63
-2.08114e-63
2.86505e-64
-2.09717e-63
2.66782e-62
3.18807e-62
-2.57005e-64
-3.33205e-64
1.30839e-63
1.57519e-63
2.19031e-67
3.57254e-67
4.21345e-70
2.67806e-70
1.81989e-68
1.33445e-68
5.64484e-68
3.81061e-67
-8.57301e-66
-5.53277e-66
8.62522e-67
9.43231e-67
6.31487e-67
7.47865e-67
-2.09199e-65
-3.52338e-65
-1.10762e-65
1.14811e-65
-3.67374e-68
-8.8038e-68
-5.15381e-67
-1.04652e-66
-2.49256e-67
-4.74988e-67
-5.17052e-68
-7.34046e-67
-1.46965e-67
-5.4235e-68
1.7884e-76
1.00109e-76
3.01102e-73
-6.5175e-72
-4.45801e-71
-2.28391e-71
-1.3216e-70
-2.87409e-70
5.01688e-69
-1.02294e-68
3.35258e-76
3.04939e-77
1.82495e-82
2.74842e-83
1.08085e-89
-1.30567e-89
1.68152e-87
3.34519e-87
1.07249e-89
-9.36285e-89
4.27235e-92
-3.14051e-91
3.84852e-92
2.54778e-91
1.4765e-89
5.72384e-90
-2.66665e-90
-5.06654e-90
-7.84217e-93
-1.36141e-91
-8.9922e-93
-5.72544e-93
2.66886e-95
5.46429e-95
9.43065e-93
1.83181e-91
-1.03657e-91
-8.26526e-92
-1.03642e-91
-1.3743e-92
-4.35892e-92
-1.54514e-92
2.06477e-70
1.0679e-70
6.1037e-71
9.81444e-71
2.0883e-73
2.87226e-73
-5.78922e-76
-4.12035e-76
-1.26852e-74
-2.82268e-74
1.92653e-74
2.62381e-74
-2.17043e-78
-8.51941e-78
2.0119e-77
2.54753e-77
1.51326e-79
3.74326e-79
2.97427e-78
-6.9801e-79
-3.88832e-81
7.71534e-81
2.69754e-82
3.46809e-82
2.05631e-84
-6.59145e-85
1.06959e-86
2.24547e-86
1.03759e-90
-3.21765e-93
4.94731e-93
-4.31956e-92
2.13724e-96
7.64769e-48
3.2874e-48
-4.7669e-50
-1.77103e-50
1.71471e-43
1.5491e-43
1.0803e-47
1.79826e-49
2.68922e-44
1.28449e-44
-7.41573e-46
6.8092e-46
-1.30377e-46
-2.3816e-45
-2.13603e-45
2.33454e-45
-9.58945e-46
-1.5875e-45
-3.18845e-46
1.3099e-46
-1.1696e-49
-1.34482e-49
2.4733e-46