/*--------------------------------*- C++ -*----------------------------------*\
  =========                 |
  \\      /  F ield         | OpenFOAM: The Open Source CFD Toolbox
   \\    /   O peration     | Website:  https://openfoam.org
    \\  /    A nd           | Version:  7
     \\/     M anipulation  |
\*---------------------------------------------------------------------------*/
FoamFile
{
    version     2.0;
    format      ascii;
    class       volScalarField;
    location    "1920";
    object      T;
}
// * * * * * * * * * * * * * * * * * * * * * * * * * * * * * * * * * * * * * //

dimensions      [0 0 0 1 0 0 0];

internalField   nonuniform List<scalar> 
238806
(
0.0118753
0.0109
0.0433116
0.064813
0.0557912
0.00430861
0.00449592
0.00786954
0.00854122
0.0255048
0.023431
0.0544845
0.0036206
0.00357821
0.0861219
0.0803156
0.0301263
0.0272892
0.00537323
0.00399322
0.00628674
0.00725591
0.0636274
0.0481318
0.065236
0.0389311
0.0368987
0.0442806
0.0504804
0.0684421
0.00390632
0.00394856
0.0193211
0.0170419
0.00434842
0.00431495
0.28695
0.292864
0.0225778
0.0201622
0.021044
0.0646105
0.00447428
0.00447112
0.00412391
0.00562238
0.0326163
0.0290162
0.0148964
0.0126942
0.00415822
0.00411533
0.00356526
0.00356601
0.021023
0.0220414
0.0271734
0.0275032
0.024334
0.0310415
0.0280071
0.0344767
0.0191761
0.0172698
0.0160734
0.0038977
0.00421799
0.00919655
0.0126347
0.00848733
0.00784436
0.0147747
0.0168315
0.0117435
0.0137665
0.00440543
0.00482676
0.00440162
0.00436791
0.0117819
0.0110212
0.014937
0.0126306
0.0114596
0.00849859
0.00797856
0.00756752
0.0454853
0.0494064
0.0440717
0.0436412
0.0252614
0.0233797
0.0116645
0.017059
0.00463007
0.00459814
0.020871
0.0245355
0.069983
0.00577678
0.00382011
0.00581454
0.00400724
0.00400209
0.00873137
0.0097801
0.0102958
0.0119332
0.015866
0.0180202
0.00749981
0.00630565
0.00414685
0.00414973
0.00382669
0.00375094
0.426871
0.563276
0.514474
0.0871121
0.110369
0.00882693
0.0113931
0.00427897
0.00446972
0.0655021
0.0899699
0.0420318
0.0553363
0.0216185
0.0315041
0.0375647
0.0686646
0.035738
0.0271833
0.00817148
0.00823799
0.0667117
0.0722654
0.0593233
0.0706135
0.01815
0.0179804
0.0268171
0.00437071
0.00683172
0.00535888
0.00361862
0.00429718
0.00610485
0.00360963
0.00463878
0.0124583
0.0139686
0.00873961
0.0099982
0.0137781
0.015734
0.00605785
0.00695673
0.00435865
0.00471183
0.00325354
0.00347011
0.00377073
0.00370788
0.0091816
0.00928112
0.15113
0.155104
0.0138859
0.0118909
0.0866576
0.087351
0.236806
0.00869029
0.0114673
0.00425749
0.00437203
0.0713402
0.0992896
0.0797661
0.0377189
0.0369217
0.0337623
0.0307573
0.0466602
0.011792
0.0118222
0.00391489
0.00390493
0.0206996
0.0314193
0.0270897
0.0284901
0.0233952
0.0632666
0.0837131
0.0491208
0.0664444
0.0123431
0.00856434
0.0106519
0.01435
0.00987131
0.0133489
0.0090976
0.00864314
0.00564357
0.00405592
0.0379262
0.0413884
0.0148324
0.0164518
0.0175347
0.0156216
0.0254891
0.0220468
0.0127832
0.010964
0.00597054
0.0071237
0.00522488
0.00460556
0.00343388
0.00327427
0.00413097
0.00408593
0.00772287
0.00759135
0.0141151
0.0139215
0.0151502
0.0148344
0.0238505
0.0243783
0.00705247
0.00744195
0.0317762
0.0340891
0.119925
0.136088
0.0223945
0.0223539
0.00898881
0.0112941
0.00448616
0.0041966
0.00531116
0.00508629
0.012668
0.0120676
0.0254169
0.0286972
0.0322435
0.0338689
0.0260522
0.026626
0.0175315
0.0177108
0.00393265
0.00392398
0.00444117
0.00472554
0.00939803
0.00986567
0.0221684
0.0200599
0.0310538
0.034123
0.0202844
0.0490883
0.0431811
0.0593879
0.0510348
0.00874127
0.0124762
0.00510354
0.00802373
0.0063046
0.00406986
0.00617513
0.00662051
0.00374278
0.00406248
0.00332815
0.0032158
0.0201768
0.0191113
0.0305787
0.0337303
0.0141685
0.0157146
0.0173551
0.0192911
0.0177669
0.0200563
0.0204408
0.0234254
0.0128866
0.0147258
0.00447731
0.00451255
0.00798879
0.0094104
0.00421628
0.00417416
0.0044821
0.00498729
0.00412097
0.00439816
0.00383578
0.00417907
0.0036844
0.00362465
0.0479192
0.0478256
0.00840963
0.00826592
0.0107705
0.0109917
0.0112358
0.0120124
0.0176623
0.0179556
0.0245197
0.0239646
0.492377
0.0130628
0.0112902
0.0843308
0.0691632
0.0489386
0.0498323
0.00447727
0.00457137
0.0585911
0.0585617
0.0212694
0.0273429
0.00425642
0.00444104
0.00442144
0.00422455
0.00634471
0.00794218
0.0742489
0.0669846
0.0523826
0.0722254
0.0457281
0.0464887
0.0393433
0.0433197
0.00408828
0.00412068
0.00411726
0.00448192
0.00449344
0.00433313
0.00466144
0.0193796
0.0146025
0.0298071
0.0199586
0.0611336
0.0535649
0.0773106
0.0191664
0.0177526
0.0399593
0.0325417
0.0753274
0.0555346
0.0432386
0.0525116
0.0142131
0.0192496
0.0278962
0.0185469
0.00391104
0.00432815
0.0124697
0.0170131
0.0115556
0.0157111
0.0094786
0.0099332
0.0108034
0.0114941
0.00401646
0.00401088
0.00311466
0.00346579
0.00410289
0.00382344
0.00386898
0.00525989
0.00625398
0.00581147
0.0372707
0.0344261
0.0080338
0.00710065
0.0135792
0.0150584
0.0164162
0.018222
0.0209991
0.023485
0.0264068
0.0295628
0.0120989
0.01381
0.0044959
0.00443207
0.00756813
0.00887212
0.00415689
0.00418085
0.00345714
0.00352188
0.00447229
0.00443641
0.00390309
0.0042297
0.00377147
0.0201228
0.0198873
0.00764108
0.00751718
0.00876555
0.00894933
0.00885239
0.00869863
0.0155754
0.0157546
0.0187154
0.0183446
0.0172167
0.017581
0.0548815
0.0652028
0.0202451
0.0198328
0.0332099
0.0291445
0.0300364
0.0198882
0.0183368
0.106325
0.109634
0.08147
0.101
0.020569
0.021548
0.0117588
0.0115712
0.0471295
0.0465085
0.281825
0.570009
0.107264
0.139706
0.0305803
0.0231479
0.00498845
0.00696606
0.00440171
0.0045539
0.00554629
0.0107345
0.00916945
0.0105153
0.044389
0.0424967
0.058156
0.0770503
0.0318211
0.0472697
0.0354956
0.0115191
0.0166205
0.00510673
0.00810489
0.00515947
0.00514789
0.00454402
0.00479256
0.00388175
0.00395549
0.00421421
0.00427567
0.0137744
0.0128995
0.018245
0.0153577
0.0663431
0.0304396
0.0272311
0.0384628
0.0754409
0.0742227
0.0606301
0.0766871
0.0402219
0.0383809
0.0166475
0.0180087
0.0169845
0.0245402
0.008822
0.0124535
0.00587095
0.00585703
0.00591751
0.00927398
0.00740894
0.0047191
0.00812592
0.00785339
0.00705106
0.00674482
0.00439267
0.00446414
0.00378608
0.00408317
0.00495811
0.00728339
0.00388514
0.00414111
0.00321127
0.00337789
0.00439452
0.00352539
0.0301275
0.0315792
0.0860484
0.0664936
0.00906928
0.00796702
0.0101541
0.00904872
0.0127154
0.011374
0.014719
0.0131174
0.0155779
0.0172813
0.0196221
0.0219064
0.0243486
0.0272264
0.0105578
0.00919707
0.0114089
0.0129894
0.00437331
0.00444222
0.00531732
0.00478704
0.0071896
0.00839504
0.0107283
0.00895642
0.00432703
0.0042608
0.00352502
0.00394935
0.00459466
0.00430436
0.00406674
0.00389453
0.00438444
0.00442282
0.0035871
0.00356822
0.143047
0.146049
0.0781774
0.0747877
0.00828057
0.00814582
0.00935087
0.00945523
0.0109646
0.0107522
0.0303707
0.0305579
0.0293285
0.0350705
0.0146443
0.0149863
0.0172975
0.0169422
0.0974774
0.0991434
0.203728
0.208275
0.0268762
0.0263263
0.0323187
0.0299493
0.0427197
0.0489606
0.0326348
0.0477811
0.0249741
0.0228224
0.0159904
0.0181137
0.0263196
0.0226434
0.0656321
0.0521306
0.0188955
0.0185092
0.150892
0.149435
0.0256275
0.0296445
0.0200521
0.0199509
0.400307
0.398641
0.222646
0.342682
0.579846
0.581627
0.0198161
0.025101
0.0155419
0.0158486
0.0044457
0.00425843
0.00413375
0.00412937
0.00437339
0.00453445
0.00955177
0.0100703
0.0112552
0.010606
0.0789232
0.110317
0.0184949
0.0169066
0.0247273
0.0293693
0.034225
0.0403553
0.0563576
0.0113896
0.0160004
0.0251161
0.02437
0.00498703
0.00807678
0.00828709
0.00828262
0.00459457
0.00482758
0.00342964
0.00347284
0.00438827
0.00469346
0.00833024
0.00889604
0.0145229
0.0150563
0.0435493
0.0522408
0.0408485
0.0667552
0.0222687
0.0205212
0.0355051
0.0382769
0.0331417
0.016112
0.0146509
0.0291064
0.0344429
0.0861622
0.0599595
0.013418
0.0125188
0.0186199
0.0279146
0.00428504
0.00390127
0.0134363
0.0184733
0.0066666
0.00563186
0.00661293
0.00828394
0.0102927
0.0109267
0.0116701
0.00401616
0.00402407
0.00454658
0.00463902
0.00335515
0.00316722
0.0102333
0.00932911
0.00323343
0.00346336
0.00385684
0.00412245
0.00727794
0.00674313
0.0210763
0.0222655
0.0293777
0.0277431
0.053624
0.0641049
0.0329839
0.0370677
0.012264
0.0108063
0.00868215
0.0076427
0.0105807
0.0094081
0.0109313
0.0121981
0.0155571
0.0138616
0.0184139
0.02051
0.0225697
0.0252452
0.0111978
0.00971261
0.00448569
0.00440378
0.00586216
0.00669359
0.00542976
0.00642487
0.00845144
0.0100236
0.00433281
0.00462767
0.00423329
0.00427198
0.003676
0.00339494
0.0038665
0.00338797
0.00334315
0.00446337
0.00450923
0.00343577
0.0034351
0.00351771
0.00347973
0.00916486
0.0094527
0.304735
0.281407
0.292595
0.293353
0.00981323
0.00936235
0.0079011
0.00806728
0.00901346
0.00883888
0.00869226
0.00854107
0.0177321
0.0178744
0.030726
0.0359889
0.0123143
0.0126052
0.022252
0.0219196
0.0150673
0.0147929
0.0140898
0.0138393
0.0165162
0.0168622
0.0651404
0.0640913
0.0801878
0.0784347
0.102402
0.10401
0.535079
0.543843
0.0762597
0.0783808
0.0269922
0.0275112
0.540149
0.525344
0.479563
0.0274547
0.0328811
0.020444
0.0180912
0.0224725
0.00363494
0.00365952
0.0287576
0.0307521
0.0268111
0.0242846
0.0126734
0.0114704
0.0167304
0.014889
0.042846
0.0463101
0.0428923
0.0417879
0.00511287
0.00524517
0.0357495
0.0365607
0.0200532
0.0196961
0.0240068
0.0252853
0.0817861
0.101544
0.00598302
0.00594391
0.0122097
0.0119709
0.0161511
0.016052
0.0198727
0.0198152
0.0583278
0.0582362
0.0904203
0.06706
0.0847614
0.0683235
0.0684697
0.0185646
0.0201231
0.0224404
0.0293043
0.00424965
0.00431179
0.00439375
0.0070775
0.00500658
0.00411986
0.00635774
0.00477059
0.00461734
0.00449058
0.0106066
0.00841102
0.0132143
0.0140518
0.0409722
0.0534623
0.015195
0.0141685
0.0345786
0.0284703
0.0388327
0.0518223
0.0161236
0.0113408
0.0310314
0.0455886
0.00455358
0.00454779
0.00514987
0.00512488
0.00449318
0.00475878
0.00352521
0.00358478
0.016012
0.012266
0.0120278
0.0111281
0.0102879
0.0107501
0.0433064
0.0346642
0.0446603
0.0758528
0.0963657
0.0807819
0.0197807
0.018308
0.0254336
0.0236245
0.0502871
0.0632324
0.0227122
0.0244999
0.0453893
0.035514
0.0427645
0.0426555
0.00868219
0.0118885
0.0184895
0.0280551
0.00865132
0.00550708
0.00415007
0.00408824
0.00641412
0.00742568
0.00785701
0.00403274
0.00405128
0.0040188
0.00363544
0.00666135
0.00459724
0.00391028
0.00415959
0.00492371
0.00372112
0.028831
0.0275109
0.0332871
0.0353427
0.0569398
0.0473422
0.0318329
0.0290887
0.0383322
0.00950542
0.0083314
0.00687994
0.00776508
0.0133036
0.0118802
0.0146947
0.0164891
0.0216157
0.0190213
0.0043342
0.00440347
0.00555567
0.00626268
0.00473509
0.00519522
0.00495297
0.00565183
0.00675981
0.00567514
0.00432244
0.00456739
0.00364868
0.0040448
0.00417991
0.00417751
0.00393172
0.00349793
0.00394168
0.00483352
0.00331668
0.00450596
0.00454717
0.00349167
0.00343786
0.00367902
0.00361215
0.0507671
0.0640424
0.307543
0.283893
0.0649675
0.0487628
0.0718673
0.0480689
0.00941809
0.00926772
0.00817601
0.00801832
0.0089763
0.00881121
0.00921292
0.00938031
0.0105438
0.0105532
0.0445811
0.035627
0.0313855
0.0367204
0.011652
0.0119158
0.0223862
0.0228256
0.034234
0.0401462
0.0159493
0.0162673
0.0160748
0.0157805
0.0133362
0.013104
0.0152471
0.015544
0.0143731
0.0140921
0.0165962
0.0162582
0.0196363
0.0215349
0.0667132
0.056115
0.134928
0.132715
0.484728
0.493401
0.0581791
0.0569828
0.0455478
0.0461583
0.02743
0.0268048
0.0363116
0.0345147
0.028699
0.028449
0.0114193
0.0117588
0.00967432
0.0354333
0.0399598
0.0362124
0.0433496
0.0482532
0.045783
0.00652526
0.00667582
0.0100142
0.0093956
0.0282552
0.0257138
0.0221812
0.0203767
0.0174243
0.0199483
0.067388
0.0643578
0.0486237
0.0605619
0.0041465
0.00412048
0.00532665
0.00538232
0.130856
0.13436
0.0184557
0.0192495
0.0201116
0.0204559
0.0201242
0.0210647
0.0712775
0.0614603
0.0450188
0.0538442
0.00394326
0.00393409
0.011259
0.00991106
0.011594
0.0105741
0.00521705
0.00524523
0.0127064
0.0129094
0.0224626
0.0225544
0.0390768
0.0389565
0.388349
0.375134
0.0465579
0.0464788
0.0897595
0.0806796
0.0150496
0.0144525
0.00453295
0.00444489
0.00488725
0.0066638
0.00415519
0.00414217
0.0044595
0.00459497
0.0151281
0.0162312
0.0086001
0.00679329
0.0585019
0.0461889
0.0552726
0.0454117
0.034944
0.0188129
0.0173637
0.0253642
0.0226455
0.0589796
0.0447495
0.034999
0.0433542
0.0304404
0.0469678
0.0239937
0.00450914
0.00452346
0.00535934
0.00826219
0.00678243
0.00628728
0.00371695
0.00409745
0.00380694
0.00372994
0.015877
0.0213721
0.0251107
0.0204169
0.022587
0.0295449
0.0325158
0.0361972
0.0295095
0.038637
0.0349438
0.0413731
0.0168553
0.0146643
0.0155813
0.0174797
0.0161477
0.0224831
0.0207582
0.0401446
0.0480515
0.0302806
0.0378908
0.0507874
0.00441223
0.00394097
0.012258
0.00880524
0.0039833
0.00390581
0.00404938
0.00409581
0.00419111
0.00480509
0.0143539
0.0154177
0.00833733
0.00889387
0.00323738
0.00327624
0.00369354
0.00404121
0.00342233
0.00321797
0.0241032
0.023004
0.0306664
0.0285259
0.0322013
0.0303716
0.0801098
0.112991
0.0281362
0.0261155
0.0394955
0.0450793
0.0102787
0.0116262
0.00833844
0.00735449
0.0187114
0.0166416
0.00455833
0.00449517
0.00465784
0.00496054
0.00546815
0.00485825
0.00685072
0.00797114
0.00422788
0.00428963
0.00432391
0.00452601
0.00400878
0.00359618
0.00419502
0.00421039
0.00354883
0.00396629
0.00404901
0.00510764
0.0043394
0.00404582
0.00455077
0.004586
0.00345172
0.00354962
0.0626892
0.0501556
0.0632102
0.0490502
0.0484978
0.0482683
0.0485483
0.0492969
0.0167609
0.0148913
0.00759796
0.00732507
0.00786336
0.00773783
0.00823647
0.00840916
0.0086679
0.00858549
0.00857767
0.00842716
0.0100761
0.00989179
0.0239577
0.0240336
0.0354333
0.0444412
0.0135402
0.0138065
0.0120935
0.012164
0.0128275
0.0129255
0.012034
0.0428657
0.0421424
0.0414274
0.0407438
0.0290861
0.0148413
0.0151165
0.0176763
0.0173561
0.0145252
0.013561
0.0147001
0.0148958
0.0152035
0.0155205
0.0156525
0.0153664
0.0141361
0.0138746
0.016213
0.0158851
0.0498444
0.0491367
0.0190004
0.0175692
0.0530523
0.0543038
0.0912216
0.092627
0.130501
0.100778
0.470084
0.475062
0.375037
0.381463
0.124939
0.126892
0.0396801
0.0402055
0.01759
0.0179195
0.0272408
0.0252242
0.0361706
0.0380776
0.0306585
0.0330835
0.0358692
0.0340032
0.411398
0.553505
0.0172735
0.0142661
0.0369793
0.0313428
0.0270056
0.0257638
0.0434775
0.044835
0.0355752
0.0291263
0.0383748
0.00372499
0.0039202
0.00514825
0.00488053
0.0327352
0.0344368
0.0301087
0.021734
0.0239669
0.0229407
0.0258179
0.0627822
0.045189
0.037834
0.0462519
0.0510948
0.0715216
0.0720336
0.0197747
0.0164681
0.00519008
0.00505759
0.0251999
0.0231348
0.0369198
0.0382184
0.0289419
0.0292089
0.0476684
0.0416469
0.020537
0.0208696
0.0701469
0.0597061
0.0548769
0.04592
0.00441517
0.00432754
0.00408885
0.00409817
0.00986238
0.0112083
0.329691
0.327527
0.270665
0.335498
0.034628
0.0409606
0.0131407
0.0134038
0.017764
0.0177034
0.0392067
0.0394206
0.0340502
0.0338664
0.397071
0.393541
0.0580675
0.0586943
0.0119266
0.0112118
0.0184161
0.023434
0.00616926
0.00582171
0.00409166
0.00404718
0.00466078
0.00606729
0.00442997
0.00457385
0.0172343
0.0134536
0.00906807
0.00717756
0.0313078
0.0274866
0.0311484
0.0210685
0.0243208
0.0218737
0.0162814
0.0219427
0.0198061
0.0312351
0.0291651
0.0237338
0.0234675
0.00394143
0.00396293
0.00385857
0.00423381
0.004027
0.00364906
0.00327761
0.00331661
0.00690455
0.00763942
0.0186578
0.017189
0.0268158
0.028885
0.0244689
0.0236488
0.0216267
0.023865
0.0249582
0.0297468
0.0249259
0.026686
0.0456069
0.0623043
0.0745909
0.0606421
0.072798
0.0155236
0.0127283
0.0139517
0.0215573
0.0190053
0.028483
0.0267957
0.0301624
0.0407649
0.0350544
0.0546028
0.0413011
0.0323478
0.040223
0.00436898
0.00392427
0.00397858
0.00398634
0.00382821
0.00396886
0.00398838
0.00333859
0.00302369
0.00403465
0.00407212
0.00505947
0.00424551
0.0123522
0.013341
0.00585768
0.00559686
0.00322142
0.00328136
0.0220062
0.0209941
0.0263661
0.028877
0.0268005
0.0253536
0.043193
0.0372885
0.0673038
0.0634857
0.0820666
0.115001
0.0466164
0.0574962
0.0525532
0.0353906
0.00981548
0.0110679
0.00445515
0.00452033
0.00501892
0.00467357
0.00569502
0.00646245
0.00586976
0.005075
0.00655102
0.00759356
0.00419856
0.00425269
0.00425687
0.00430329
0.00421368
0.00424111
0.00420055
0.00542987
0.00428326
0.00397303
0.00741027
0.00726027
0.0344827
0.0438653
0.0381062
0.0385506
0.204824
0.214966
0.237383
0.228365
0.109312
0.100299
0.0125209
0.0137606
0.0093859
0.00955255
0.00832922
0.00885997
0.00784901
0.00769776
0.00818878
0.00804166
0.00871602
0.00856618
0.00850052
0.00833663
0.00864997
0.00853875
0.00838579
0.00873139
0.00913692
0.00932824
0.0101301
0.0103398
0.333026
0.336101
0.0145179
0.014314
0.0141362
0.01274
0.273452
0.292843
0.0196273
0.0174029
0.0130211
0.0127686
0.0118059
0.0121931
0.0125782
0.0126666
0.0136041
0.0137344
0.0271056
0.0277087
0.034457
0.0287667
0.0215564
0.0192574
0.0166889
0.0170262
0.0138073
0.0140578
0.0138718
0.0140153
0.015289
0.0149338
0.0148256
0.0151011
0.0146565
0.0144038
0.0158454
0.0161776
0.0172428
0.0168906
0.0246265
0.0250104
0.0306373
0.0300285
0.0183276
0.0198743
0.0208974
0.0266117
0.0271751
0.0411932
0.0402917
0.113114
0.110092
0.196449
0.205603
0.440912
0.4337
0.45382
0.447602
0.525205
0.520095
0.201461
0.37182
0.0873669
0.0859191
0.0915438
0.0939837
0.0204155
0.0200006
0.0256752
0.0245256
0.0321749
0.0338472
0.022352
0.0228369
0.0320878
0.0346337
0.035335
0.0371843
0.0459262
0.043215
0.0475605
0.0453525
0.547287
0.536482
0.0392173
0.0455854
0.0299386
0.0277926
0.025686
0.0309006
0.0271405
0.0377318
0.0339607
0.0404107
0.0510579
0.0234899
0.0118885
0.0112512
0.00452825
0.00571515
0.0053124
0.003674
0.00883709
0.00667507
0.0271879
0.0298226
0.0124309
0.0109416
0.020914
0.0187448
0.0273871
0.0256542
0.0218348
0.0366421
0.0321101
0.0361842
0.0599546
0.034209
0.0292034
0.0348571
0.235335
0.197365
0.00437796
0.00440155
0.015334
0.0150792
0.0200992
0.0204462
0.048327
0.0473429
0.0371992
0.0385087
0.0305599
0.0298764
0.126583
0.246137
0.0424452
0.0484638
0.0196907
0.0205936
0.0224587
0.0236008
0.0582834
0.051795
0.0960845
0.0973365
0.0487933
0.0581193
0.0537476
0.0549571
0.00394674
0.0038918
0.00412239
0.00416168
0.0069388
0.00692701
0.00667257
0.00677228
0.307857
0.31412
0.324863
0.0404516
0.034304
0.00550402
0.00549057
0.016782
0.0165832
0.0159713
0.0159068
0.0291081
0.0291429
0.400926
0.401394
0.028448
0.027899
0.0461704
0.0461373
0.0985562
0.106343
0.132771
0.189965
0.00950922
0.00889592
0.0169305
0.0218113
0.0046659
0.00644995
0.0040435
0.00407413
0.00456527
0.0057958
0.00434281
0.00451381
0.0126914
0.0119481
0.0905665
0.126204
0.0385537
0.020199
0.0163144
0.011402
0.00416624
0.0037872
0.00343247
0.0102253
0.00931125
0.0267939
0.0235916
0.0470579
0.0583696
0.0618007
0.0203917
0.0175879
0.0206419
0.0322579
0.0560605
0.0640805
0.088835
0.0977784
0.122145
0.0166226
0.0135231
0.02359
0.0260767
0.0278204
0.0246114
0.0328645
0.0255613
0.0240037
0.0502772
0.0289029
0.00818806
0.00592661
0.00730738
0.01591
0.0221313
0.00384005
0.00397876
0.00313687
0.00323132
0.00399496
0.0039916
0.0030187
0.00341724
0.00538007
0.00433339
0.00406626
0.00412138
0.0102584
0.00963978
0.0227801
0.0213958
0.0181776
0.0173563
0.0200998
0.0220304
0.0241072
0.0313515
0.0338046
0.0412339
0.0463435
0.171651
0.141375
0.0519253
0.0269323
0.0299895
0.0423306
0.00449944
0.00433442
0.00441366
0.00448132
0.00544339
0.00609425
0.00612728
0.00523202
0.00428437
0.00433521
0.0034379
0.00329827
0.0261546
0.0264816
0.0061593
0.0059484
0.0140115
0.0137246
0.00920606
0.00903575
0.0231193
0.0234781
0.293007
0.233737
0.170673
0.182761
0.0692536
0.0669938
0.219973
0.037877
0.0372484
0.0132323
0.01204
0.0149636
0.0152601
0.0224174
0.022003
0.0102899
0.0101357
0.00745648
0.0077414
0.00765317
0.00753811
0.00771055
0.00755955
0.00789701
0.00855778
0.00842085
0.00849257
0.00833896
0.00861987
0.00846239
0.00900998
0.00884698
0.0104345
0.0102456
0.0103394
0.0101388
0.0623883
0.062968
0.0159412
0.0161362
0.0208713
0.0211235
0.0159004
0.034911
0.0440958
0.0263886
0.0269275
0.0119014
0.0127285
0.0145943
0.016187
0.0118586
0.0119202
0.0110395
0.0111779
0.0126291
0.0123896
0.0133406
0.0134593
0.013372
0.0456387
0.0449522
0.0358762
0.0367475
0.0196004
0.0199402
0.0196944
0.0191892
0.0163783
0.0180043
0.0126572
0.0124418
0.0144194
0.0145956
0.0143941
0.0151715
0.0154628
0.0142994
0.0140489
0.0143484
0.0159277
0.0156037
0.0162605
0.0159382
0.0165475
0.0407396
0.0498303
0.0358943
0.0351983
0.0238087
0.0267819
0.0219017
0.0213685
0.0586391
0.0596063
0.314112
0.444356
0.105668
0.136046
0.128669
0.094631
0.0929548
0.0941946
0.0958363
0.128262
0.12597
0.427173
0.25034
0.506379
0.502893
0.367939
0.3644
0.53063
0.480356
0.120871
0.121661
0.102789
0.10113
0.0495556
0.050607
0.0191045
0.0194993
0.0172445
0.0175793
0.0292822
0.0277649
0.0293886
0.0284566
0.0208564
0.0203208
0.0258927
0.027978
0.0258715
0.0243201
0.0791739
0.0780902
0.0370191
0.0389918
0.0280844
0.0278358
0.0399878
0.0367652
0.0790632
0.0774081
0.499989
0.309983
0.408927
0.0108422
0.0106082
0.00376665
0.00380747
0.0200261
0.0177069
0.0184942
0.0238472
0.0498251
0.0614112
0.0242169
0.0495433
0.0482534
0.0483745
0.00629494
0.00644881
0.00382352
0.00366416
0.00358664
0.00353499
0.00357689
0.00395784
0.00354609
0.00339693
0.0103322
0.00768089
0.0358913
0.0490344
0.0165599
0.0149631
0.0118992
0.0105973
0.030228
0.0266252
0.02367
0.0194337
0.0223926
0.0186659
0.0234097
0.0250749
0.036549
0.0299486
0.0398463
0.00342572
0.00331515
0.00345759
0.0402858
0.0288235
0.0239739
0.00486267
0.00498537
0.01134
0.0101195
0.00939267
0.00979709
0.0412124
0.0507579
0.035212
0.0343819
0.0398724
0.0390424
0.0399031
0.0412981
0.0326321
0.0333442
0.0295992
0.0302728
0.017846
0.0167842
0.0432475
0.0492764
0.0307664
0.0368251
0.0192694
0.0201354
0.0229217
0.0251251
0.0234793
0.0247101
0.0388135
0.0414862
0.095407
0.0956711
0.443173
0.444609
0.07833
0.100881
0.0806123
0.102487
0.112539
0.116758
0.068225
0.0707822
0.00408264
0.00401136
0.00440272
0.00434657
0.00630574
0.00630432
0.00684431
0.00674875
0.0142311
0.0128862
0.0199362
0.0227923
0.0294536
0.0255279
0.00594962
0.00603143
0.0195369
0.0202835
0.0144263
0.0143655
0.0178452
0.0179453
0.0335898
0.0336954
0.40163
0.400958
0.0357283
0.0363642
0.0300786
0.0298262
0.0463413
0.0462467
0.11062
0.114921
0.0118436
0.0114665
0.0111605
0.00902141
0.0103678
0.0155575
0.0143991
0.00485336
0.00669101
0.00417332
0.0667184
0.0112633
0.0119367
0.00393625
0.00431963
0.00403516
0.0133745
0.0174731
0.0113701
0.01226
0.0258984
0.0365724
0.0571831
0.0263075
0.0482521
0.117438
0.160885
0.0370646
0.0455298
0.0934963
0.0122466
0.0115423
0.0308372
0.0346711
0.0287788
0.0257716
0.0324866
0.0361399
0.0519431
0.0417587
0.0424468
0.00822163
0.00595302
0.0150015
0.0205132
0.00387152
0.00398102
0.00315979
0.00316076
0.00306945
0.00356974
0.00393881
0.00398556
0.00428588
0.00519687
0.0231518
0.0244538
0.0166286
0.0183028
0.0251593
0.0263575
0.0334513
0.0370222
0.0956029
0.0700635
0.0243477
0.00435219
0.00448532
0.00429643
0.00436496
0.0050964
0.00469789
0.00398209
0.00356123
0.0222535
0.0225377
0.00520251
0.00515072
0.00648279
0.00642378
0.0108764
0.0115586
0.0424725
0.0500504
0.00806448
0.00793805
0.0437077
0.0437106
0.0104845
0.0104185
0.0298243
0.0299936
0.0603286
0.0496905
0.197128
0.19017
0.291101
0.194073
0.211984
0.204436
0.0426887
0.042443
0.0129762
0.0118069
0.0134935
0.012278
0.0247714
0.0242617
0.0125699
0.0123843
0.0113336
0.0111678
0.00815708
0.00800731
0.00771786
0.00785473
0.00717252
0.00711599
0.00785565
0.00776558
0.00741773
0.0075769
0.00871031
0.00886703
0.00869439
0.00878002
0.00919294
0.00902791
0.0104561
0.010652
0.0102399
0.0100479
0.242366
0.24791
0.060817
0.0613618
0.0180418
0.0182301
0.0143268
0.0129126
0.0136626
0.0122781
0.0441979
0.0350746
0.0447211
0.0460492
0.0269617
0.0316308
0.0124858
0.011676
0.0155626
0.0140331
0.0100836
0.0102111
0.0120204
0.0124178
0.0115891
0.0114449
0.0123715
0.0120899
0.0121544
0.0123333
0.0130817
0.0127706
0.0130818
0.0131897
0.0185538
0.0181669
0.0392056
0.0399815
0.0301657
0.0309801
0.0381593
0.0326822
0.0143123
0.0145736
0.0173911
0.0177793
0.0143012
0.0140531
0.0124988
0.0122851
0.0141431
0.0143022
0.0155364
0.015845
0.0148187
0.0145563
0.0153175
0.0150156
0.0155628
0.0152447
0.0156242
0.0161006
0.0285064
0.0289275
0.03805
0.0383282
0.0312548
0.0365659
0.0250715
0.0279506
0.0194175
0.0179372
0.0272188
0.0278093
0.0376672
0.0385053
0.0689627
0.0663211
0.0442185
0.0432366
0.0683586
0.057434
0.0982691
0.0963816
0.482064
0.476878
0.123632
0.12102
0.246289
0.242487
0.25479
0.259702
0.117201
0.120387
0.198725
0.196214
0.0830268
0.0815175
0.0726202
0.0713462
0.0567367
0.0585082
0.0488739
0.050607
0.017988
0.0190218
0.0187434
0.0183724
0.0172302
0.0168792
0.0262833
0.0250788
0.0277209
0.0281736
0.0223728
0.0217711
0.0265595
0.0286978
0.0226363
0.0220969
0.0271386
0.0265006
0.0234212
0.0233364
0.0338558
0.031373
0.0321737
0.030418
0.0377803
0.0410175
0.0425809
0.041559
0.115298
0.179025
0.101433
0.085388
0.309446
0.0104075
0.0116549
0.0883438
0.103064
0.00781948
0.00731083
0.055681
0.0672771
0.0126229
0.0150187
0.0225612
0.0206962
0.0215734
0.023476
0.0235106
0.0202484
0.0372954
0.0319645
0.0462614
0.047743
0.0247404
0.0235714
0.00433519
0.0040548
0.00876147
0.00741992
0.00367277
0.0036244
0.00428938
0.00426763
0.00397239
0.00417057
0.00548016
0.00380728
0.00321462
0.00327287
0.0173805
0.0260157
0.00750203
0.010783
0.0368821
0.0484337
0.0131897
0.0138418
0.0127198
0.0102696
0.0230898
0.0205442
0.0194149
0.0162391
0.0154372
0.0166234
0.0186861
0.0212458
0.048028
0.0477494
0.0619657
0.0699708
0.0807409
0.0390576
0.0496662
0.00379882
0.00387321
0.0389474
0.0396177
0.0225614
0.0235932
0.00419368
0.00437716
0.00509611
0.00496313
0.0057637
0.00582319
0.132557
0.143861
0.00540281
0.00564864
0.0404316
0.0396958
0.021917
0.021414
0.0263018
0.0257442
0.0847635
0.0871602
0.0870193
0.0852587
0.0362551
0.0365295
0.0340709
0.0348129
0.0219508
0.0214883
0.0607163
0.05618
0.0276941
0.0332787
0.018917
0.0178074
0.0745163
0.0694672
0.0557549
0.0545267
0.0188953
0.0192726
0.0188569
0.0196861
0.0344163
0.041271
0.0246633
0.0224867
0.0229619
0.0241478
0.0281198
0.0297781
0.0665153
0.056112
0.152257
0.154478
0.0274647
0.0283599
0.0770185
0.0993129
0.0795727
0.102069
0.0710851
0.0367909
0.0375584
0.0665555
0.0690181
0.00396582
0.00399987
0.00879085
0.00787615
0.00637453
0.00633874
0.00682169
0.00671333
0.0108793
0.0110049
0.0117384
0.0106658
0.0116741
0.0106161
0.0156453
0.0176034
0.0301721
0.0259272
0.223236
0.362876
0.0484151
0.0620647
0.00606431
0.006145
0.0215857
0.0223581
0.0111369
0.0110291
0.0205232
0.0207467
0.016414
0.0162705
0.0254249
0.0254086
0.0593301
0.0599767
0.0581234
0.058243
0.116789
0.119593
0.0311234
0.0316038
0.0345402
0.0342724
0.0584158
0.0584511
0.251679
0.207287
0.0980895
0.012795
0.0137835
0.00955565
0.00911125
0.00585334
0.00547702
0.00449355
0.00444954
0.00426815
0.028393
0.0234935
0.0224506
0.0167408
0.0139541
0.0349295
0.210862
0.176499
0.0867236
0.0738429
0.0694511
0.0849116
0.0179761
0.0191876
0.0220576
0.0204241
0.0475636
0.0269597
0.00399615
0.00469203
0.0102998
0.00955573
0.011474
0.0110713
0.00305125
0.00326508
0.00381782
0.00397768
0.00349562
0.00303514
0.0236148
0.0251497
0.0191124
0.0200312
0.0417916
0.050239
0.00437553
0.00448139
0.0202204
0.0199449
0.00653512
0.00669192
0.00546957
0.00539537
0.00951988
0.00937983
0.00726246
0.00710435
0.0114816
0.0117476
0.339887
0.291367
0.153632
0.157531
0.0115397
0.0117367
0.00781652
0.0097753
0.0102577
0.0343632
0.0438151
0.029538
0.0296895
0.0167689
0.0167338
0.029481
0.0252975
0.0345079
0.0455578
0.0591902
0.0500348
0.0616679
0.0493601
0.288761
0.285383
0.0369061
0.0372938
0.0235489
0.0231872
0.0127258
0.0115787
0.0146737
0.0214611
0.0219061
0.0209531
0.0213744
0.0140356
0.0138248
0.0117724
0.0116408
0.0077544
0.00813301
0.00871255
0.00856038
0.00763906
0.00779154
0.00732416
0.00720886
0.00801641
0.00789063
0.00775433
0.0076133
0.00969927
0.00981366
0.00911065
0.00894355
0.00916727
0.00900537
0.00952769
0.00935749
0.0093182
0.0091453
0.0097219
0.00992416
0.00987923
0.00970158
0.0104357
0.222069
0.218307
0.129999
0.129108
0.0635414
0.0641275
0.0193507
0.0218273
0.0211258
0.0145439
0.0130971
0.0138106
0.0124254
0.021883
0.0254541
0.0419764
0.0398782
0.0562845
0.051538
0.0389753
0.035342
0.0237938
0.0242933
0.017751
0.0200257
0.014883
0.0165087
0.014311
0.0158717
0.0114024
0.0114469
0.012237
0.0126447
0.0113818
0.0112407
0.0121417
0.011869
0.0124126
0.0124735
0.0122525
0.0131206
0.0128729
0.0182618
0.0186191
0.033157
0.0338407
0.023748
0.0242489
0.0206252
0.0214008
0.0332712
0.0388477
0.0251244
0.024775
0.0156423
0.0153481
0.0138102
0.013572
0.012872
0.0127139
0.0138632
0.0137899
0.0135019
0.0149435
0.0152363
0.0162526
0.0159479
0.0145582
0.0150887
0.0147156
0.0144111
0.0164296
0.0167672
0.0503707
0.0411872
0.0323204
0.0323564
0.0484244
0.0477215
0.025895
0.0282031
0.0288148
0.0225342
0.0262316
0.0232929
0.0236302
0.0241544
0.0211459
0.0207004
0.030604
0.0299223
0.0299767
0.0283968
0.045799
0.0468746
0.0490924
0.0492591
0.0469725
0.0382888
0.0374731
0.0482996
0.0472662
0.0701587
0.0588616
0.116437
0.119996
0.118045
0.113868
0.239292
0.235885
0.421533
0.416698
0.146871
0.14482
0.284032
0.149177
0.0456288
0.0446649
0.0687583
0.0673766
0.0995274
0.123141
0.107662
0.110532
0.0648854
0.0667916
0.0514725
0.0531866
0.0401439
0.0341466
0.0200169
0.0204386
0.0143512
0.0148419
0.0271025
0.0285789
0.0254288
0.0262662
0.0280655
0.0197442
0.0201434
0.027221
0.0294044
0.0214251
0.0218813
0.0249033
0.0254964
0.0363841
0.0359786
0.031069
0.0292188
0.0348942
0.0381721
0.0442894
0.0470622
0.0488209
0.0457498
0.0744941
0.0760705
0.0955019
0.0804922
0.0989317
0.0831284
0.253089
0.246879
0.0084282
0.00728471
0.00780817
0.0592056
0.0742736
0.0096318
0.0103065
0.00872535
0.0106366
0.0191688
0.0152821
0.0216195
0.0188948
0.0528074
0.0543752
0.0482515
0.0567345
0.0433384
0.0167546
0.0141404
0.0140235
0.00527395
0.00525438
0.00998413
0.0105929
0.00434944
0.0046266
0.0119717
0.0112917
0.00664946
0.00625121
0.00503408
0.00413788
0.00368652
0.00376347
0.00368972
0.00372432
0.00431298
0.00398248
0.00418891
0.00410981
0.00383869
0.00323118
0.00322088
0.00321191
0.0102207
0.0127419
0.0117858
0.0132754
0.0129913
0.0104773
0.00765506
0.0185512
0.0198066
0.101041
0.0682218
0.0176865