/*--------------------------------*- C++ -*----------------------------------*\
  =========                 |
  \\      /  F ield         | OpenFOAM: The Open Source CFD Toolbox
   \\    /   O peration     | Website:  https://openfoam.org
    \\  /    A nd           | Version:  7
     \\/     M anipulation  |
\*---------------------------------------------------------------------------*/
FoamFile
{
    version     2.0;
    format      ascii;
    class       volScalarField;
    location    "300";
    object      T;
}
// * * * * * * * * * * * * * * * * * * * * * * * * * * * * * * * * * * * * * //

dimensions      [0 0 0 1 0 0 0];

internalField   nonuniform List<scalar> 
238806
(
0.0376565
0.0371604
0.0310779
0.0306831
0.031596
0.0357963
0.0358965
0.0376052
0.0381151
0.0303139
0.0299749
0.0325523
0.0231526
0.0228726
0.0234189
0.0244146
0.0297508
0.0292976
0.0420222
0.0421253
0.0254124
0.0248856
0.0243416
0.0240758
0.0234806
0.0304523
0.0298746
0.0297388
0.0284033
0.028587
0.0417663
0.0421143
0.0261859
0.0269965
0.0275182
0.0283074
5.43145e-06
5.30595e-06
0.0308278
0.0312705
0.0306134
0.0296887
0.0410565
0.0413576
0.0417345
0.0416226
0.0226823
0.0236457
0.0278067
0.0286085
0.0324145
0.0326871
0.0238713
0.0235785
0.000127058
0.000128139
0.0306959
0.0311994
0.031198
0.0322886
0.0317882
0.0315605
0.031565
0.0313554
0.0319655
0.0414075
0.0413421
0.0386269
0.0382168
0.0355007
0.0349218
0.025934
0.0251409
0.0280284
0.0272661
0.0306645
0.0302734
0.0274934
0.0282755
0.00188873
0.0019017
0.0284795
0.0293265
0.0379077
0.0381608
0.0334458
0.0328223
0.0282391
0.028691
0.0291629
0.0287324
0.0329364
0.0323112
0.0401028
0.0398529
0.0309532
0.0316045
0.0311837
0.0304198
0.0297031
0.0412126
0.0387916
0.0384913
0.0380447
0.0381482
0.02013
0.0195847
0.0268279
0.0261195
0.0264775
0.0256708
0.0305879
0.0310889
0.0319591
0.0317043
0.0233803
0.0241078
5.12882e-06
5.15843e-06
5.04134e-06
0.0229301
0.0219257
0.0371588
0.0368948
0.0363105
0.0364091
0.0225015
0.0223988
0.0273375
0.0275968
0.031789
0.0285601
0.0281792
0.0286596
0.0328372
0.0335032
0.0399602
0.0403321
0.0252391
0.0246442
0.0248984
0.0253054
0.0319564
0.0399621
0.0395302
0.0397458
0.0394551
0.0379826
0.0382835
0.0363254
0.0359488
0.0338212
0.0334726
0.0206099
0.0199448
0.024951
0.0243154
0.0253751
0.0246003
0.0247294
0.0242238
0.029949
0.0295795
0.0326936
0.0324573
0.0273368
0.0281296
0.002544
0.00252944
5.45915e-06
5.33309e-06
0.0277937
0.0285784
0.0103613
0.0102513
0.0102521
0.0376604
0.0373987
0.0319789
0.0317094
0.0213607
0.0213609
0.0276709
0.0288047
0.0293283
0.0291716
0.0380711
0.037934
0.0404544
0.0408073
0.0409861
0.0412944
0.0377305
0.0373924
0.0308777
0.0314942
0.0316331
0.0274041
0.0275145
0.03101
0.0307253
0.04165
0.0418585
0.0395548
0.0391641
0.0391027
0.0387043
0.0339652
0.0332815
0.0353654
0.0357341
0.0145959
0.0147883
0.0187921
0.0181375
0.0219643
0.022742
0.0245563
0.0253754
0.026701
0.0274343
0.0304753
0.0299613
0.0315728
0.0320431
0.0317569
0.0319687
0.027467
0.0282602
0.00525697
0.00551415
0.000651707
0.000692792
0.000693842
0.000739184
7.20957e-05
6.66218e-05
0.0359166
0.0366484
0.0335513
0.0345844
0.0198856
0.0189861
0.00838266
0.00813372
0.0366496
0.0364023
0.0329893
0.0332575
0.0319852
0.0313472
0.0290895
0.0285039
0.024503
0.0247773
0.0302445
0.0308618
0.0399206
0.0403585
0.0402006
0.040586
0.0403049
0.0406575
0.0288929
0.0289553
0.0370236
0.0374756
0.0310656
0.0307359
0.0259372
0.0251131
0.032501
0.0270629
0.0341327
0.0337981
0.0346108
0.0414469
0.0412189
0.040618
0.0403298
0.0389857
0.0392799
0.0368585
0.0374478
0.0369572
0.0369974
0.0355947
0.0353987
0.0183043
0.0178941
0.0208782
0.0213497
0.0183184
0.0176937
0.0202163
0.0194678
0.0237998
0.0229765
0.0248482
0.0240036
0.0248046
0.0240519
0.0233709
0.0230789
0.0287497
0.028122
0.0304694
0.0302473
0.0313633
0.0309419
0.0235551
0.0236747
0.026556
0.0266838
0.0264754
0.0257418
0.00265733
0.00278343
0.00412554
0.00433546
0.00219386
0.00207874
0.00180036
0.00178856
0.000512365
0.000514277
6.65923e-05
7.20988e-05
4.94802e-06
0.0271229
0.0278296
0.0218373
0.0227798
0.000144855
0.000133888
0.0181254
0.0186701
0.0101721
0.00997542
0.0361697
0.0357288
0.03678
0.0368816
0.0323506
0.0326213
0.0308855
0.0303111
0.0267522
0.0268569
0.0264932
0.0262075
0.0359339
0.036658
0.0395464
0.0401358
0.0391902
0.0388162
0.0388147
0.0407347
0.04039
0.0302246
0.0302939
0.0346263
0.0352018
0.0367182
0.0371946
0.0295031
0.0288109
0.0238837
0.0346553
0.0339699
0.0293691
0.030195
0.0316465
0.0322088
0.0321792
0.0316639
0.0380196
0.0375858
0.041173
0.0414137
0.0405997
0.0405025
0.0404033
0.0400136
0.0399772
0.0395546
0.0306635
0.0313307
0.0327186
0.0333757
0.0375604
0.0374347
0.0379713
0.0377502
0.0357303
0.035706
0.0351181
0.0347555
0.0330387
0.0323895
0.0154064
0.0151839
0.0212541
0.0217681
0.017846
0.0172504
0.019741
0.019024
0.0216492
0.0208152
0.0231254
0.0222246
0.0242264
0.0234976
0.0237837
0.0240578
0.0281008
0.0274911
0.0309823
0.0312201
0.0283741
0.0291508
0.0259505
0.0267171
0.0257874
0.0259117
0.0272105
0.00338004
0.00352975
0.00525815
0.00551427
0.00370201
0.003519
0.0031873
0.00336021
0.000690792
0.000649618
0.000828034
0.000872274
0.000582301
0.000547413
1.78395e-05
1.79015e-05
0.000434263
0.000461585
0.0323408
0.0327855
0.0321487
0.0209358
0.0205498
0.0210701
0.0205724
0.02081
0.0211552
0.000137396
0.000138557
0.0126471
0.0122749
0.010678
0.0104867
0.0101166
0.0101
0.0184061
0.0185059
0.0369321
0.0372716
0.0359578
0.0356821
0.0340571
0.0341423
0.0326298
0.0296236
0.0296143
0.0290361
0.0259755
0.0250872
0.0252175
0.0254425
0.0389009
0.0390639
0.0393324
0.0397203
0.03946
0.0397609
0.0395589
0.0408578
0.0411753
0.0275413
0.0275991
0.0300767
0.0294205
0.031523
0.0308783
0.0371236
0.0366484
0.0303621
0.0310799
0.0280466
0.0283622
0.0279353
0.0242508
0.026554
0.0266483
0.0262758
0.0259771
0.0279419
0.0315831
0.0364798
0.0370221
0.0395123
0.0391375
0.0410207
0.0407731
0.0403454
0.0407846
0.041424
0.041141
0.0399034
0.040191
0.0318591
0.0312076
0.0344738
0.0337671
0.0359232
0.0365732
0.0363435
0.0363755
0.0374454
0.0370536
0.0343641
0.034375
0.0347532
0.034942
0.032811
0.0331468
0.0136869
0.0139322
0.0178226
0.018629
0.0230888
0.0236754
0.0201387
0.0207095
0.0189378
0.0195464
0.0204494
0.0211434
0.0192668
0.0185811
0.021169
0.0203608
0.0226243
0.0217496
0.0249235
0.0255836
0.0236435
0.0229402
0.0257155
0.0258665
0.025188
0.025595
0.0274403
0.0268507
0.0293598
0.0300183
0.0281671
0.0279858
0.032119
0.0322003
0.0298419
0.0292673
0.0286421
0.027941
0.026737
0.0259659
0.0250137
0.0242925
0.00170397
0.00162163
0.00278263
0.00265677
0.00413195
0.00434304
0.00240947
0.00239596
0.00207968
0.00219536
0.00147595
0.00140125
0.000749447
0.000743987
0.000840652
0.000840051
0.000545452
0.000580382
1.32759e-05
1.21944e-05
5.33896e-06
5.21303e-06
0.000185726
0.000186529
6.1182e-05
6.12625e-05
0.0293587
0.0284479
0.0365242
0.0362738
0.0192783
0.0188885
0.026952
0.0260702
0.0260553
0.0271103
0.0215129
0.0224268
0.000184001
0.000185474
7.72953e-06
7.54284e-06
0.00702557
0.0069272
0.00907631
0.00881506
0.0086941
0.00889193
0.00999693
0.00986006
0.00994872
0.0102639
0.0356373
0.0351709
0.0370729
0.0376036
0.0379595
0.0384105
0.0356318
0.0361634
0.0346634
0.0347566
0.0323
0.0329319
0.0310422
0.0303446
0.020289
0.0203572
0.0276906
0.0271245
0.0274032
0.0262406
0.0250256
0.0343886
0.0342569
0.0384007
0.0381139
0.0396287
0.0392062
0.0393333
0.0391284
0.0406763
0.0410062
0.0268627
0.0269187
0.0311208
0.0304926
0.0295623
0.0296278
0.0361242
0.0365711
0.0375919
0.0380629
0.0284238
0.0277601
0.027806
0.0304292
0.0299553
0.0294974
0.0328311
0.0333208
0.0337035
0.0333221
0.0327046
0.0296545
0.0288219
0.0251766
0.0328995
0.0375041
0.0370028
0.0409581
0.0406866
0.0409314
0.0410173
0.0407998
0.0404055
0.0322752
0.0321228
0.0316405
0.032574
0.0320391
0.0358815
0.0364589
0.0368104
0.036169
0.037212
0.0378603
0.0371979
0.0374141
0.0365588
0.0360571
0.0333992
0.0335716
0.0350462
0.0350634
0.0343136
0.0336816
0.0172126
0.0175887
0.015557
0.0152818
0.0151244
0.0152628
0.0182651
0.0186592
0.0223797
0.0230565
0.0224749
0.023037
0.0206964
0.0212932
0.0190186
0.0184372
0.0209546
0.0216773
0.0206925
0.0199131
0.0221341
0.0212784
0.0255259
0.0262101
0.024495
0.0247686
0.0240469
0.0235624
0.0291462
0.0286527
0.0293877
0.0287428
0.0292196
0.0288684
0.0306757
0.0306128
0.0297351
0.0303322
0.030203
0.0287164
0.0295612
0.0252087
0.0251986
0.0268377
0.0276006
0.0245989
0.0253362
0.0184915
0.0190352
0.00170066
0.00169813
0.00242533
0.00231238
0.00262985
0.00265108
0.00473675
0.00451288
0.00352913
0.00371345
0.00318028
0.00335357
0.000688472
0.000647205
0.0011696
0.00116341
0.00125689
0.00125932
0.000909114
0.000958253
0.000927739
0.00097904
0.00067775
0.000718179
0.000658041
0.0006191
9.98684e-05
0.000107559
1.64865e-05
1.79745e-05
1.0313e-05
9.49376e-06
5.38176e-06
5.25646e-06
5.27098e-06
5.14253e-06
0.00017285
0.00017252
5.1365e-06
5.28956e-06
5.15106e-06
0.0275493
0.0278742
0.036475
0.03584
0.0355756
0.0372071
0.0364954
0.0390018
0.0397509
0.0208439
0.020477
0.0247452
0.025281
0.025546
0.0263572
0.0310421
0.0305756
0.0301211
0.0306205
0.0120128
0.0112096
8.13997e-05
7.54599e-05
0.000146056
0.000147274
7.87365e-05
7.94408e-05
2.16811e-05
2.17149e-05
0.010158
0.0105448
0.0134083
0.013025
0.00951053
0.00922506
0.00855512
0.00829621
0.00936738
0.00916502
0.0101389
0.0101498
0.0100304
0.0104402
0.010296
0.0329541
0.0335335
0.0366902
0.0362318
0.0371839
0.0375919
0.0372879
0.0362529
0.0364897
0.036659
0.0344836
0.0348199
0.0322471
0.0321576
0.0335442
0.0340529
0.0297552
0.0304118
0.0212074
0.0213648
0.028444
0.0278626
0.0268365
0.0279852
0.0337189
0.0334567
0.0386008
0.038877
0.038539
0.0384459
0.0392539
0.0388518
0.0405213
0.0401585
0.0282183
0.0282785
0.0298535
0.0292048
0.033533
0.0341631
0.0361748
0.0357002
0.0379246
0.0383686
0.0294606
0.0301506
0.0300685
0.0237572
0.0231316
0.0241347
0.0279103
0.027477
0.0263515
0.0258891
0.0257721
0.0248278
0.0331446
0.0339547
0.0301181
0.0308435
0.0404596
0.0409744
0.0401265
0.0398439
0.040487
0.040173
0.040745
0.0410301
0.0335861
0.0334074
0.0330088
0.0351454
0.0357871
0.03695
0.0363185
0.0381699
0.038111
0.036516
0.0368976
0.0336622
0.0336687
0.034123
0.0344803
0.0144452
0.0141782
0.0141663
0.0143879
0.0159706
0.0158076
0.0195459
0.0191214
0.021803
0.023703
0.0243141
0.0211394
0.0206497
0.0194405
0.0200771
0.0222108
0.0214601
0.0234856
0.0243247
0.0264659
0.0266261
0.022692
0.0222484
0.0248783
0.0244871
0.0270318
0.0265904
0.0293159
0.0298229
0.0284796
0.0281449
0.0289356
0.0290611
0.0328621
0.0329446
0.0329408
0.0328558
0.0308141
0.0304543
0.0303949
0.024467
0.0244652
0.0271271
0.0279119
0.0248455
0.0255947
0.00162984
0.00162528
0.00161869
0.00161637
0.00219753
0.00219751
0.00253577
0.00253612
0.00482265
0.00504
0.00452963
0.0047547
0.00353669
0.00372227
0.00255618
0.00242094
0.00231696
0.00231481
0.00139705
0.00139868
0.00110754
0.00110174
0.0014871
0.00149037
0.000521786
0.000490798
0.000838539
0.000833081
0.00078887
0.000746402
0.000974289
0.00102812
0.000936046
0.000988134
0.000534939
0.000502505
0.000685926
0.000728315
0.000617281
0.000656407
0.000330751
0.00032952
1.64116e-05
1.63475e-05
9.46036e-06
1.02803e-05
5.40568e-06
5.28042e-06
7.95415e-06
8.69089e-06
7.01911e-05
6.51406e-05
0.000172331
0.000185265
6.09999e-05
6.10945e-05
3.77937e-05
3.78917e-05
0.0336696
0.0343267
0.0343407
0.0290304
0.0281216
0.0338153
0.0330796
0.034274
0.0352593
0.0083792
0.00793162
0.0360226
0.0353013
0.0184821
0.0180968
0.0200938
0.019705
0.0275604
0.0265957
0.0286332
0.0280586
0.0283777
0.0287355
0.0146
0.0153506
0.0103921
0.0104574
1.31077e-05
1.21728e-05
0.000201665
0.000203246
0.000136245
0.000135106
0.000148502
0.000149747
1.26528e-05
1.26586e-05
3.40385e-05
3.43576e-05
0.0187614
0.0193302
0.00470347
0.00476087
0.00750929
0.00767301
0.0171687
0.0177179
0.0119414
0.0122965
0.00863198
0.00888214
0.00958869
0.00937408
0.00948869
0.00969464
0.0102866
0.0100823
0.00989858
0.0182058
0.0365609
0.0360556
0.0384485
0.0379626
0.0353952
0.0350761
0.0344872
0.0350722
0.0327997
0.0328863
0.0310711
0.0316955
0.0309045
0.0315132
0.0203932
0.0203945
0.0197294
0.0225313
0.0221932
0.0303266
0.029729
0.0258065
0.0254028
0.0349943
0.0353636
0.0352566
0.034919
0.0375261
0.037322
0.0387934
0.0400173
0.0396231
0.0388505
0.038647
0.0294574
0.0288656
0.0278871
0.0280871
0.0307237
0.0313601
0.0357108
0.0351952
0.0327917
0.033023
0.0335159
0.0308821
0.0314828
0.0290321
0.0297785
0.026453
0.0271896
0.0270433
0.0297212
0.030224
0.0294728
0.028701
0.0282983
0.02712
0.0266727
0.0254004
0.0244929
0.0323173
0.0379432
0.0378358
0.0395689
0.0396803
0.0402991
0.0405737
0.0402018
0.0401905
0.0348234
0.0349906
0.0331234
0.0327237
0.0352988
0.0359055
0.0364032
0.0369661
0.0360215
0.0362251
0.037547
0.0375963
0.0342668
0.0340857
0.0155847
0.0152646
0.0168067
0.0165085
0.0149487
0.0147023
0.015376
0.0154865
0.0204154
0.0199718
0.0205141
0.0209776
0.022468
0.021818
0.0218629
0.0224009
0.0224695
0.023272
0.0237031
0.0235916
0.0227573
0.0224052
0.0258899
0.0263139
0.0267701
0.026201
0.028746
0.0289399
0.0277335
0.0274142
0.0298643
0.0297545
0.0322038
0.032125
0.031358
0.0314404
0.031469
0.0310889
0.0244075
0.0242876
0.0237398
0.0237498
0.0260822
0.0263549
0.00170809
0.00171323
0.00209298
0.00209289
0.00230621
0.00241907
0.00334736
0.00350759
0.00273765
0.00276926
0.00521704
0.00527095
0.00498924
0.00497007
0.00429792
0.00409131
0.00390555
0.00389274
0.00316919
0.00334244
0.00244477
0.00258004
0.000679213
0.000640774
0.00147313
0.00147134
0.00159287
0.00150801
0.00158009
0.0015808
0.00133576
0.00133662
0.00125382
0.000654804
0.000695983
0.000739725
0.000785543
0.000845762
0.000791715
0.000748975
0.00096934
0.00102267
0.00103333
0.00103837
0.000892399
0.000891986
0.000839881
0.000790357
0.000561961
0.000596789
0.000681649
0.000722821
0.000615282
0.00065445
0.000353158
0.000376288
0.00046345
0.000464754
1.41505e-05
1.2931e-05
1.88384e-05
1.72477e-05
1.11769e-05
1.12102e-05
6.34893e-06
5.95045e-06
5.35955e-06
5.23401e-06
6.76334e-06
6.27694e-06
7.03674e-05
6.53334e-05
0.000202804
0.000202792
0.000107638
0.000107195
5.16845e-05
5.15748e-05
5.64171e-05
5.63149e-05
2.11856e-05
2.11557e-05
5.33391e-06
5.33063e-06
0.0329691
0.0336951
0.0302658
0.0298834
0.0343698
0.0337668
0.0320494
0.0314108
0.035485
0.0350956
0.0345443
0.023909
0.024211
0.0409602
0.0415336
0.0193247
0.0186145
0.0189379
0.0213163
0.0216962
0.0256345
0.0247152
0.0315487
0.0314932
0.0319439
0.0321571
0.0294887
0.0296106
0.027242
0.0110097
0.0113267
0.0111349
0.0119291
6.64768e-05
6.69788e-05
9.70198e-06
9.45735e-06
0.000116626
0.000115936
0.000174341
0.000175602
0.000125982
0.000124918
1.36777e-05
1.37336e-05
3.16648e-05
3.13697e-05
0.0156552
0.0162069
0.0173614
0.0179062
0.00496928
0.00491112
0.00523804
0.00543137
0.00610403
0.00612718
0.00684552
0.00678127
0.012657
0.013023
0.00874236
0.0084727
0.00787182
0.00765582
0.00975019
0.0095267
0.00908989
0.00928816
0.0103653
0.0105401
0.0346579
0.0341243
0.0351302
0.0346434
0.0378552
0.0383539
0.0371201
0.0375624
0.0342269
0.0338808
0.0334343
0.0335185
0.0323755
0.0329769
0.0316327
0.0321765
0.0237451
0.023672
0.0229815
0.0290415
0.0288968
0.0296529
0.02909
0.0268083
0.0262958
0.0347355
0.0341571
0.0383255
0.0378132
0.0394761
0.0399226
0.0265578
0.0267419
0.0287563
0.0285487
0.0381812
0.0385615
0.0352237
0.0356851
0.0367129
0.0362059
0.0278582
0.0270426
0.0273487
0.0301062
0.0296954
0.0314982
0.0320466
0.028781
0.0290475
0.0295052
0.0309301
0.0260544
0.026149
0.014516
0.014638
0.0308273
0.0314306
0.0291631
0.0283149
0.0290655
0.0256533
0.0251451
0.0248803
0.0266494
0.0262699
0.0385015
0.0387906
0.0387092
0.038408
0.0400475
0.0401535
0.0417439
0.0420636
0.0417617
0.0392366
0.0392391
0.0401141
0.0399663
0.0355064
0.0356649
0.0334054
0.0338316
0.0340214
0.0346624
0.0362278
0.0355793
0.0368312
0.0366206
0.0161991
0.0158491
0.0139021
0.0134316
0.0162062
0.0158986
0.0177262
0.0174048
0.017468
0.0168058
0.0168364
0.0170848
0.0197379
0.0194586
0.0202338
0.0200143
0.0218799
0.0212567
0.0242674
0.0244002
0.023097
0.0234615
0.0233677
0.0229035
0.0272863
0.0277457
0.0260935
0.0255454
0.0295012
0.0297087
0.0298919
0.0298398
0.0314475
0.0313754
0.0321405
0.0317378
0.0251527
0.025031
0.00575896
0.00573464
0.00199673
0.00199382
0.00194344
0.0018478
0.00243204
0.00231875
0.00278458
0.00265894
0.00351274
0.00334614
0.00197908
0.00196352
0.00356211
0.00338339
0.00470523
0.00467247
0.00409886
0.00433351
0.00454278
0.00476829
0.00354311
0.00373128
0.00410549
0.0043134
0.00391567
0.00315349
0.003326
0.00300449
0.00334354
0.00317552
0.002575
0.00244176
0.000504787
0.000474837
0.000576855
0.00061311
0.000981157
0.000983958
0.00132956
0.00133269
0.00181841
0.00183255
0.00177624
0.00187513
0.00123558
0.00122976
0.00141301
0.00141392
0.00112671
0.00112709
0.000621964
0.000585486
0.000790685
0.000797685
0.00101092
0.00101696
0.00087568
0.000830256
0.000983649
0.000931898
0.00106387
0.00106399
0.000790013
0.000789749
0.000599254
0.000564178
0.000645708
0.000642264
0.000743503
0.000699448
0.000510481
0.000543517
0.000163845
0.000152435
0.000431474
0.000458885
0.00040777
0.000406948
0.000462359
7.68257e-05
7.11848e-05
9.47152e-06
1.03618e-05
1.66622e-05
1.8154e-05
9.48065e-06
1.0288e-05
9.41828e-06
1.02369e-05
7.98394e-06
8.66738e-06
5.92704e-06
6.3265e-06
5.5678e-06
5.58763e-06
6.25286e-06
6.74462e-06
5.286e-06
5.15826e-06
0.00043444
0.000461942
0.000111115
0.000110827
7.81124e-05
7.80231e-05
9.10398e-05
8.42852e-05
4.77631e-05
4.76166e-05
5.62138e-05
5.61122e-05
2.54105e-05
2.54634e-05
9.83522e-06
9.82913e-06
5.02333e-06
4.94706e-06
0.0171765
0.0173727
0.0287995
0.0295864
0.0290891
0.0310854
0.0306673
0.0318376
0.0315029
0.0312537
0.0332399
0.0370028
0.0190375
0.0185083
0.0296041
0.0290268
0.0403904
0.0405622
0.034574
0.0351808
0.0196759
0.0200354
0.0264721
0.027093
0.0238401
0.0247029
0.0317513
0.0311054
0.031917
0.0307018
0.0310938
0.0312807
0.0306091
0.0243538
0.0251187
0.0252206
0.00730542
0.00727164
0.0140933
0.0148056
0.00460481
0.00486713
0.000218858
0.000218541
3.00226e-05
3.27154e-05
9.78261e-06
9.53631e-06
9.9987e-05
0.000107691
0.00031169
0.000310112
0.000162593
0.000161421
0.000160433
0.000161758
0.000100211
0.000101086
6.68958e-05
6.74843e-05
7.82765e-06
7.63574e-06
2.46048e-05
2.48495e-05
8.022e-06
7.46374e-06
0.0190375
0.0196121
0.0184568
0.0190163
0.0074461
0.00716381
0.00657288
0.00628698
0.00592256
0.00580924
0.0059652
0.00700087
0.00707159
0.0152938
0.0147897
0.0106825
0.0103846
0.00894206
0.00866145
0.00808838
0.00785761
0.00789951
0.00809873
0.0111494
0.0109045
0.00946062
0.00925305
0.00970878
0.00950969
0.0176686
0.0176929
0.0351966
0.034643
0.0346316
0.0340867
0.0374915
0.0373572
0.0380037
0.0384412
0.0336162
0.0332633
0.0352456
0.0353434
0.0323485
0.0317148
0.0192988
0.0194044
0.0237383
0.0283602
0.0390495
0.0393143
0.0274151
0.027223
0.0389338
0.0352238
0.0347225
0.0362523
0.0357123
0.0317461
0.0321635
0.0313034
0.0319419
0.0324057
0.0324332
0.028006
0.0269333
0.0270946
0.0228866
0.0198796
0.0200146
0.0314055
0.0320844
0.0287367
0.0291808
0.0267306
0.0275276
0.0240167
0.0371273
0.0364693
0.0355231
0.0382371
0.0382296
0.0383746
0.0379206
0.0390055
0.0386055
0.0410416
0.0410508
0.0417963
0.0416397
0.0387169
0.038708
0.0395022
0.0396506
0.0349035
0.0352519
0.0341186
0.0342954
0.0352644
0.0346268
0.0191271
0.0187148
0.0174826
0.0170698
0.0154949
0.0149386
0.0144059
0.0158241
0.0160823
0.0156149
0.0149646
0.0156081
0.0163133
0.0181936
0.0187243
0.0179076
0.0191448
0.0266801
0.0269847
0.0249798
0.0251226
0.0220181
0.0215964
0.0279751
0.028452
0.0291002
0.0290592
0.0310512
0.0312159
0.00476541
0.00458691
0.00876536
0.00871091
0.00089974
0.000951344
0.00394293
0.0041414
0.00352194
0.00336967
0.0020988
0.00210454
0.00279693
0.002671
0.00241885
0.00230613
0.00253792
0.00414522
0.00431081
0.00218385
0.00220298
0.00205353
0.00194773
0.00350425
0.00366303
0.00475852
0.00497168
0.00501945
0.00497226
0.00501196
0.00500171
0.00523428
0.00549062
0.00500323
0.00392305
0.00392772
0.00411685
0.0043258
0.00313383
0.00330478
0.0030225
0.00301531
0.00207371
0.00219032
0.00244463
0.00257868
0.000565284
0.000532909
0.00061118
0.000575156
0.000925559
0.000878796
0.000978922
0.00171788
0.00171557
0.00117615
0.00111373
0.00152627
0.00151731
0.00167072
0.00165906
0.00167021
0.00167076
0.00147263
0.00147819
0.0013343
0.00141145
0.0011928
0.00119341
0.00112603
0.000513305
0.000545603
0.000699109
0.000657304
0.000964072
0.00091461
0.000743694
0.000785489
0.000923533
0.000919239
0.00100273
0.00105885
0.000947004
0.000946643
0.000893363
0.000532776
0.000500538
0.000674266
0.000714228
0.000638986
0.000698083
0.000742577
0.000506563
0.000539365
0.000578407
0.000444381
0.000443885
0.000429992
0.000457364
0.000433309
0.000432602
0.00040668
0.000433871
0.000107891
0.000100178
2.87345e-05
2.85182e-05
1.0904e-05
1.11293e-05
1.03863e-05
1.65714e-05
1.80592e-05
1.57884e-05
1.4469e-05
1.21597e-05
1.3239e-05
1.11263e-05
1.11487e-05
7.97126e-06
8.65994e-06
5.90628e-06
6.30743e-06
5.60933e-06
5.63313e-06
8.7322e-06
7.98396e-06
6.26445e-06
6.75411e-06
5.80035e-06
5.4697e-06
0.000295566
0.000276811
0.000232831
0.000217329
0.000103897
0.000103605
0.000129134
0.000129049
0.000178064
0.000190301
9.91683e-05
9.94706e-05
7.81035e-05
7.80629e-05
5.13481e-05
5.55329e-05
4.74826e-05
4.73629e-05
4.09566e-05
4.10767e-05
2.5516e-05
2.55458e-05
5.01906e-06
5.01349e-06
5.02104e-06
4.986e-06
4.95052e-06
0.0149308
0.0144346
0.0390452
0.0384031
0.0305122
0.0310727
0.0302791
0.0285573
0.0307542
0.0309699
0.0332303
0.0323017
0.0316413
0.0322718
0.00833987
0.00789722
0.0251134
0.0247968
0.0353147
0.0345505
0.0397387
0.0397973
0.0410861
0.0415899
0.0391925
0.0395266
0.0362825
0.035972
0.0214282
0.0223514
0.0258621
0.0264277
0.0238418
0.0233892
0.0229649
0.0315019
0.0306305
0.0307817
0.0343794
0.0352254
0.030019
0.0303733
0.0292089
0.0365314
0.0371632
0.0372403
0.0101997
0.0104271
0.0107027
0.0137856
0.0128705
0.00262019
0.00265282
0.00113184
0.00112533
0.00012323
0.000123755
3.20803e-05
3.49389e-05
2.98319e-05
3.2508e-05
9.86127e-06
9.61331e-06
1.71281e-05
1.57198e-05
0.000108335
0.000100588
0.00028629
0.000288344
0.000150486
0.000149398
0.000141373
0.000140274
0.000173232
0.000174647
0.000105718
0.000104809
8.53617e-05
8.6122e-05
1.32281e-05
1.33494e-05
8.65069e-06
8.17336e-06
7.53934e-06
7.36031e-06
2.74079e-05
2.76304e-05
2.33814e-05
2.35048e-05
1.25991e-05
1.16041e-05
6.16192e-06
6.01063e-06
0.0178973
0.0184671
0.0175884
0.0170579
0.0072831
0.00757356
0.00621268
0.00649258
0.00800096
0.00817858
0.0062784
0.00617764
0.00716028
0.00726584
0.0121966
0.0117386
0.0128602
0.0131772
0.00915248
0.00886033
0.00901348
0.00928664
0.00796971
0.00774688
0.00829762
0.00849594
0.010861
0.0110757
0.00994291
0.00970898
0.00987556
0.00966819
0.00930996
0.00911059
0.0167394
0.0163182
0.0359251
0.0361222
0.0356261
0.0341095
0.0335578
0.0370087
0.0368427
0.033881
0.0190381
0.0173102
0.0176829
0.0382141
0.0382877
0.0385766
0.0346997
0.0341266
0.0287533
0.0293428
0.0339433
0.0333313
0.0330816
0.0304536
0.025722
0.0190819
0.0191166
0.0230781
0.0222292
0.0221025
0.0306772
0.0300005
0.0271097
0.0275111
0.0352656
0.0347102
0.0345198
0.0373795
0.0371743
0.0392817
0.0399003
0.0387052
0.0389081
0.0385262
0.038122
0.0406281
0.0406406
0.0412468
0.0413936
0.0385059
0.03865
0.0397269
0.039735
0.0345574
0.0341921
0.0165449
0.0168865
0.0166563
0.0160692
0.0147057
0.0149979
0.0171034
0.0163322
0.0161622
0.0160652
0.0195445
0.0262381
0.0259464
0.027224
0.0273943
0.0237901
0.024167
0.0306593
0.0305638
0.0105216
0.010832
0.0147992
0.0147082
0.00844222
0.00841626
0.00104806
0.0010438
0.0010306
0.00102803
0.00409479
0.00428777
0.0027864
0.00266
0.00278265
0.00291824
0.00404638
0.00420606
0.00189617
0.00189589
0.00219957
0.00209499
0.0025424
0.00254948
0.00242101
0.00230826
0.00411026
0.00427236
0.00230209
0.00232326
0.00207104
0.0020883
0.00278229
0.00291714
0.00462109
0.00482748
0.00469053
0.00490026
0.00492818
0.00516213
0.00438233
0.00414168
0.00532396
0.005375
0.00501186
0.0050149
0.00546826
0.0052136
0.00372825
0.00354142
0.0029898
0.00297161
0.00319102
0.00336238
0.00219362
0.00207718
0.00244568
0.00258041
0.00050625
0.000476163
0.000501657
0.00047209
0.000609045
0.000573344
0.000928356
0.000930507
0.00115584
0.00116035
0.0016305
0.00163262
0.00149615
0.0014199
0.00161355
0.00160312
0.00160306
0.00161286
0.00184684
0.00186109
0.00194408
0.00195168
0.00116926
0.00116391
0.00132188
0.00131716
0.0013322
0.00132943
0.00149281
0.00149443
0.00112503
0.00112357
0.00126242
0.00126319
0.000664255
0.00070365
0.00054751
0.000515134
0.00070199
0.000659494
0.000987035
0.000992374
0.000882886
0.000836263
0.000786702
0.000744525
0.00075211
0.000795072
0.000999991
0.00105582
0.00100406
0.0010039
0.000537177
0.000504542
0.000671185
0.000710827
0.000610431
0.000649077
0.000696303
0.000741282
0.000573955
0.000576259
0.000163772
0.00015233
0.000336157
0.000315223
0.000405833
0.000404301
0.000382157
0.000383192
0.000434575
0.000435636
7.72016e-05
7.15316e-05
2.30657e-05
2.11835e-05
5.89954e-06
5.84698e-06
1.36124e-05
1.48805e-05
1.50402e-05
1.49728e-05
1.39637e-05
1.52085e-05
1.42754e-05
1.55538e-05
1.44315e-05
1.57561e-05
1.21271e-05
1.32008e-05
1.02543e-05
9.43455e-06
5.48888e-06
5.36189e-06
5.88773e-06
6.29106e-06
7.97879e-06
8.73186e-06
6.24211e-06
6.73515e-06
5.24442e-06
5.11449e-06
5.22202e-06
5.09055e-06
0.00033456
0.000333963
0.000276476
0.000295187
0.000217205
0.000232556
0.000103343
0.000103086
0.000159714
0.000160057
0.000178973
0.000190901
9.16478e-05
9.18127e-05
9.8665e-05
0.000106511
6.65215e-05
7.20977e-05
7.80212e-05
7.79789e-05
5.18013e-05
5.1925e-05
3.44444e-05
3.48148e-05
2.32464e-05
2.32441e-05
1.13233e-05
1.23824e-05
1.43559e-05
1.43666e-05
6.28818e-06
6.27281e-06
5.16746e-06
0.0139461
0.0134847
0.0186461
0.0178321
0.0379199
0.0372385
0.027478
0.0276052
0.032408
0.0316123
0.0298303
0.0294397
0.0339208
0.0342106
0.0347852
0.0345937
0.0326756
0.0332504
0.0371784
0.0379885
0.0144683
0.0141329
0.0174903
0.0178555
0.0257068
0.0262524
0.0292231
0.0283544
0.0350034
0.0357604
0.0392144
0.0391845
0.0391949
0.0394426
0.0411418
0.0416072
0.0389349
0.0384412
0.0413074
0.0409984
0.0369822
0.0368156
0.0238059
0.0231491
0.0233559
0.0257958
0.0242778
0.0251725
0.0281894
0.0291888
0.031577
0.0322565
0.0328343
0.033498
0.0340775
0.0329966
0.0257709
0.0261657
0.0251264
0.0330438
0.0330607
0.0270161
0.0273008
0.00960669
0.00990481
0.0100996
0.0103893
0.0138767
0.0133938
0.0110042
0.0117793
0.008436
0.00847911
0.00464091
0.00482883
0.00707265
0.00694451
0.000133332
0.000144263
0.000146887
0.000159251
5.63394e-05
6.12119e-05
5.09722e-05
4.68377e-05
1.20968e-05
1.30264e-05
1.01394e-05
1.0223e-05
1.44454e-05
1.3301e-05
0.000138509
0.000148901
0.000265915
0.000265034
0.000398641
0.00039561
0.000229081
0.000230816
7.90493e-05
8.46787e-05
0.000160296
0.000173136
0.000171834
0.000170449
0.000186956
0.000188459
8.77203e-05
8.69761e-05
0.000113487
0.000114458
9.25068e-05
9.3325e-05
4.42407e-05
4.46315e-05
1.76037e-05
1.77348e-05
8.06585e-06
8.52993e-06
3.53533e-05
3.50754e-05
2.9727e-05
2.99839e-05
2.52939e-05
2.54739e-05
2.14953e-05
1.13675e-05
1.04897e-05
6.22013e-06
6.06916e-06
0.0181995
0.0176419
0.00482041
0.0048819
0.00926309
0.00962244
0.00740674
0.0077415
0.00502064
0.0048142
0.00866216
0.00885734
0.00806776
0.00824503
0.00651813
0.00639172
0.00646503
0.0065503
0.00649305
0.0065013
0.00716117
0.00712142
0.0122636
0.0117983
0.0124451
0.0127314
0.0111912
0.0108414
0.00987111
0.0101401
0.0100901
0.00979892
0.00822645
0.00798705
0.00774117
0.00753572
0.00855698
0.00835378
0.00891137
0.00871194
0.0106458
0.0108782
0.0101976
0.00997399
0.00956998
0.00977245
0.0153228
0.0160462
0.0174937
0.0351433
0.03557
0.0174492
0.0170235
0.02827
0.02767
0.0335058
0.0341304
0.0388887
0.0241699
0.0251471
0.0267862
0.0299072
0.0305724
0.0324135
0.0164626
0.0172807
0.0188916
0.0196743
0.0218737
0.0207995
0.0301965
0.0306935
0.0359153
0.0353143
0.0363725
0.0377213
0.0386212
0.0384609
0.037914
0.0374777
0.0393602
0.0388849
0.0404093
0.0405555
0.0414264
0.0414257
0.0391632
0.0390156
0.0179643
0.0183412
0.0164527
0.016834
0.0165744
0.0168047
0.0254975
0.0252169
0.0111496
0.0108175
0.0198979
0.0205155
0.011831
0.0123424
0.00592887
0.00619074
0.00603995
0.00601337
0.000791789
0.000787589
0.000966824
0.00096545
0.00146707
0.00139465
0.00201567
0.00191307
0.00448767
0.00245399
0.0024635
0.00209755
0.00209443
0.00190401
0.0018108
0.00417991
0.00435112
0.00389411
0.00392907
0.00418098
0.00416414
0.00180362
0.00180329
0.00199263
0.00199244
0.00266355
0.0027892
0.00311189
0.00297436
0.00429022
0.00447051
0.00242608
0.00244952
0.00216443
0.00200184
0.00190106
0.00294879
0.00281129
0.00455151
0.00475447
0.00411521
0.00429956
0.00452895
0.00448555
0.00488004
0.00510375
0.00437777
0.00412935
0.00521003
0.00546026
0.00455988
0.004783
0.00524884
0.00550603
0.0021602
0.00214849
0.00266966
0.00281696
0.00270826
0.00285802
0.00272002
0.00286959
0.00318846
0.0033588
0.00286131
0.00271478
0.00244197
0.00257758
0.00231741
0.000644892
0.000685857
0.00050258
0.00047288
0.000501936
0.000472321
0.00079154
0.00079889
0.000765087
0.000877701
0.000879246
0.00109473
0.00109868
0.00173228
0.0017263
0.00121627
0.00122196
0.00147106
0.00147064
0.00175611
0.00176698
0.00154042
0.00146027
0.00173775
0.00172497
0.00158242
0.00157183
0.00176354
0.00175067
0.00186478
0.00186471
0.00110668
0.00110175
0.00139786
0.00139273
0.00140916
0.00140612
0.00149528
0.00112151
0.00118574
0.00119179
0.00126115
0.000524976
0.000493545
0.000549367
0.000516944
0.000623386
0.000587104
0.000826468
0.000785829
0.000938941
0.000933598
0.000902007
0.000951713
0.000833038
0.000879194
0.000839854
0.000886744
0.000950322
0.000947617
0.000853649
0.000824111
0.000861807
0.000607616
0.000571512
0.000496772
0.000528627
0.000635946
0.000633185
0.000690258
0.000734569
0.00054148
0.00050854
0.000390852
0.00039132
0.000339663
0.000318944
0.000400711
0.000426565
0.000359208
0.000344496
0.000362807
0.000380448
0.000460217
0.000461319
0.000220096
0.00020513
0.000173639
0.000186936
7.84268e-05
8.46028e-05
6.50709e-05
6.53359e-05
2.38448e-05
2.19501e-05
8.57075e-06
9.13375e-06
9.02358e-06
1.62293e-05
1.7726e-05