/*--------------------------------*- C++ -*----------------------------------*\
  =========                 |
  \\      /  F ield         | OpenFOAM: The Open Source CFD Toolbox
   \\    /   O peration     | Website:  https://openfoam.org
    \\  /    A nd           | Version:  7
     \\/     M anipulation  |
\*---------------------------------------------------------------------------*/
FoamFile
{
    version     2.0;
    format      ascii;
    class       volScalarField;
    location    "1620";
    object      T;
}
// * * * * * * * * * * * * * * * * * * * * * * * * * * * * * * * * * * * * * //

dimensions      [0 0 0 1 0 0 0];

internalField   nonuniform List<scalar> 
238806
(
0.325285
0.305845
0.77593
1.11897
0.976056
0.344203
0.37905
0.247019
0.258173
0.574016
0.549619
0.96523
0.31277
0.2868
1.20433
1.17161
0.639401
0.601486
0.232304
0.271995
0.264614
0.269684
1.02221
0.83817
1.0472
0.729122
0.711905
0.798447
0.876044
1.07666
0.318873
0.330572
0.484379
0.443769
0.382478
0.380251
0.99621
0.996307
0.538685
0.504236
0.51899
1.09672
0.367706
0.367765
0.263972
0.233314
0.676122
0.626286
0.401459
0.355761
0.299902
0.333069
0.305083
0.278998
0.993685
0.997708
0.593481
0.592121
0.56017
0.635276
0.602694
0.694201
0.472852
0.440832
0.419134
0.312882
0.259847
0.270198
0.341452
0.260219
0.249771
0.400332
0.441146
0.336797
0.378808
0.289319
0.265862
0.380734
0.37812
0.673005
0.673413
0.418669
0.369115
0.328598
0.27107
0.269328
0.265319
0.811826
0.860982
0.799086
0.793024
0.57818
0.550906
0.33173
0.44284
0.399033
0.397234
0.505292
0.557524
1.13408
0.234392
0.214369
0.218393
0.295792
0.340502
0.295604
0.312074
0.309611
0.342242
0.421666
0.462479
0.262793
0.254518
0.33922
0.308167
0.340287
0.333454
1.03144
1.04131
1.03737
1.06783
1.16786
0.277039
0.327763
0.340336
0.375941
1.02876
1.18363
0.776304
0.94475
0.526432
0.648171
0.721598
1.14148
0.69308
0.596388
0.265031
0.265643
0.944252
1.08576
0.963823
1.10494
0.459475
0.457864
0.590615
0.209187
0.229466
0.215353
0.219151
0.215751
0.223905
0.231456
0.218779
0.359238
0.390478
0.286093
0.307235
0.380532
0.420471
0.266644
0.269207
0.296428
0.272388
0.274549
0.2412
0.338862
0.333683
0.644493
0.631725
0.988964
0.989147
0.397088
0.353118
1.06789
1.05134
1.1171
0.274473
0.32907
0.322902
0.284612
1.05531
1.1987
1.28332
0.721745
0.70735
0.680258
0.622573
0.857393
0.334173
0.334636
0.289254
0.289132
0.501392
0.659815
0.592124
0.606837
0.540952
1.02363
1.25713
0.863905
1.07633
0.342517
0.265977
0.299141
0.377287
0.283217
0.356257
0.281805
0.274641
0.220274
0.218679
0.75467
0.79088
0.409591
0.442511
0.457474
0.42006
0.577832
0.528498
0.359042
0.321767
0.254689
0.260327
0.254136
0.273327
0.245365
0.278079
0.367682
0.364503
0.595016
0.587332
0.89967
0.89148
0.908311
0.900943
0.993624
0.993872
0.25072
0.25624
0.667271
0.704039
1.08836
1.04851
0.60748
0.609733
0.280324
0.32649
0.272351
0.31107
0.258611
0.262433
0.358782
0.347045
0.585408
0.627472
0.665634
0.69108
0.586057
0.595816
0.451496
0.454843
0.291302
0.290135
0.390262
0.404582
0.284003
0.292296
0.529428
0.492815
0.649716
0.686534
0.494343
0.860998
0.773088
1.02587
0.892326
0.26927
0.345524
0.210308
0.247233
0.223185
0.211046
0.244324
0.245745
0.339865
0.362162
0.299896
0.251859
0.508791
0.491665
0.651939
0.689989
0.39717
0.428994
0.456346
0.491918
0.459773
0.499836
0.50411
0.549487
0.362823
0.400883
0.350926
0.330892
0.27052
0.292537
0.350065
0.322544
0.281734
0.259649
0.365983
0.386246
0.3441
0.371065
0.250253
0.25694
0.958175
0.95728
0.634283
0.62617
0.761261
0.770854
0.68544
0.685397
0.947401
0.950254
0.99355
0.993291
1.03539
0.379803
0.340534
1.09326
1.02084
0.994463
0.99492
0.286803
0.281379
0.923093
0.925247
0.524197
0.59384
0.337532
0.372171
0.278089
0.316871
0.259295
0.27321
1.13952
1.09514
0.892914
1.14727
0.841184
0.848212
0.727648
0.800606
0.317822
0.323824
0.27944
0.368193
0.369202
0.383247
0.400835
0.478033
0.391021
0.631164
0.489115
1.0006
0.905553
1.11358
0.481059
0.455791
0.754451
0.669377
1.23468
0.941807
0.799617
0.902469
0.384265
0.479063
0.608254
0.467524
0.306757
0.256756
0.337944
0.430111
0.318214
0.404493
0.290676
0.298256
0.31423
0.327973
0.341087
0.298074
0.270962
0.22483
0.364642
0.346231
0.222386
0.218418
0.229442
0.225891
0.744654
0.712554
0.28471
0.276085
0.386338
0.416931
0.439253
0.473973
0.516385
0.55498
0.591975
0.637297
0.347456
0.382884
0.324099
0.344249
0.266799
0.284557
0.315692
0.344881
0.258776
0.249623
0.385869
0.383312
0.34941
0.374608
0.243979
0.684511
0.673999
0.586663
0.579363
0.662633
0.672511
0.652066
0.643164
0.898996
0.906751
0.856929
0.84782
0.940374
0.94544
0.995847
0.994817
0.969039
0.965656
0.670563
0.619008
0.629875
0.515203
0.489444
0.919839
1.12024
1.04024
1.15201
0.991187
0.995372
0.375674
0.374778
0.861652
0.858846
1.12817
1.11713
1.17511
1.12789
0.62789
0.553466
0.25293
0.255531
0.355424
0.384501
0.256069
0.319048
0.289273
0.31563
0.805488
0.773225
0.98205
1.18207
0.634101
0.880365
0.687634
0.328841
0.434298
0.240651
0.264363
0.238219
0.237785
0.396818
0.408567
0.350161
0.355988
0.37531
0.379444
0.373565
0.355371
0.459612
0.404472
1.07249
0.639776
0.598236
0.74171
1.0634
1.14176
0.978631
1.1397
0.757897
0.743122
0.431674
0.45703
0.439897
0.564683
0.270987
0.345351
0.235718
0.235092
0.21665
0.269718
0.23754
0.208957
0.268036
0.26575
0.253066
0.251585
0.265754
0.260661
0.343345
0.363384
0.213895
0.23813
0.35077
0.367369
0.258335
0.305207
0.220652
0.236463
0.666045
0.683142
1.07603
1.00624
0.293992
0.278612
0.31699
0.298472
0.36713
0.34008
0.404831
0.371637
0.423621
0.457491
0.494923
0.532356
0.564196
0.606142
0.316616
0.292067
0.33445
0.366827
0.354953
0.37407
0.271902
0.285235
0.264467
0.278515
0.315712
0.282554
0.36323
0.340228
0.3189
0.355124
0.224331
0.229413
0.233051
0.238215
0.384851
0.387357
0.264014
0.271347
0.993449
0.994012
0.992182
0.990707
0.623499
0.615814
0.65488
0.642492
0.767703
0.758336
0.895323
0.900982
0.921768
0.945578
0.893357
0.899882
0.942393
0.937121
0.995641
0.995636
0.997683
0.997771
0.99452
0.996374
1.00114
0.998403
0.784152
0.850267
0.665134
0.855043
0.598434
0.566004
0.440023
0.479171
0.607852
0.549821
1.00169
0.896467
0.970046
0.973855
1.0007
0.999981
0.678205
0.737758
0.558382
0.559238
1.11897
1.11992
1.11774
1.11238
1.13713
1.12852
0.498764
0.568427
0.414115
0.419982
0.258552
0.265705
0.288537
0.284437
0.352305
0.383385
0.294104
0.303086
0.328178
0.316235
1.12284
1.20324
0.475332
0.446025
0.569769
0.629315
0.688517
0.753395
0.994375
0.326843
0.422619
0.579017
0.569156
0.244483
0.264582
0.266068
0.265776
0.400008
0.410661
0.297207
0.304994
0.386845
0.402691
0.266775
0.275739
0.388931
0.399734
0.79396
0.903704
0.754827
1.11019
0.526055
0.501167
0.700313
0.690683
0.70017
0.424514
0.395156
0.622956
0.68906
1.22268
1.02721
0.367514
0.348923
0.469046
0.608021
0.257582
0.309167
0.358897
0.457057
0.254166
0.250326
0.255496
0.27024
0.304693
0.315923
0.331178
0.301492
0.305598
0.255873
0.25146
0.231402
0.2795
0.291547
0.275152
0.26983
0.313576
0.348729
0.365991
0.241473
0.234648
0.52569
0.543275
0.648859
0.628289
0.901361
0.9759
0.686534
0.732133
0.352907
0.323678
0.289669
0.276755
0.323333
0.302524
0.333011
0.358007
0.420853
0.385962
0.474887
0.511335
0.53945
0.579343
0.32819
0.299824
0.317635
0.338919
0.269446
0.26972
0.259349
0.258401
0.275749
0.302815
0.303216
0.279042
0.374581
0.369686
0.241731
0.250145
0.230404
0.292194
0.284433
0.38998
0.388403
0.274589
0.266858
0.297366
0.289786
0.305812
0.308404
1.04953
1.05682
1.0672
1.06666
0.602887
0.610298
0.614104
0.623687
0.672949
0.663582
0.636855
0.62784
0.908795
0.915838
0.895596
0.925134
0.823437
0.832852
0.865324
0.856903
0.823685
0.813592
0.882049
0.873838
0.92947
0.935054
0.996462
0.996465
0.994623
0.99461
0.995674
0.995715
1.03867
1.03876
0.995417
0.995587
0.997577
0.995634
1.0298
1.02705
1.01798
0.601227
0.673569
0.485719
0.442642
0.53006
0.324372
0.326434
0.6362
0.672408
0.621772
0.584885
0.372954
0.346145
0.455099
0.418742
0.799012
0.83133
0.793609
0.787762
0.398444
0.407067
0.993599
0.993796
0.980516
0.984353
1.00405
1.00742
0.988862
0.986735
0.380809
0.374421
0.37957
0.377255
0.480747
0.481621
0.56064
0.562553
0.926187
0.926702
1.05204
0.995504
1.02889
0.987485
0.978546
0.473188
0.500149
0.542185
0.607835
0.337082
0.346489
0.365071
0.255506
0.252041
0.282791
0.253631
0.25844
0.388192
0.364444
0.313118
0.274506
0.369915
0.38658
0.770877
0.90852
0.411132
0.390772
0.689003
0.619123
0.74028
0.910927
0.42479
0.325626
0.624487
0.842072
0.37688
0.379178
0.238861
0.239955
0.393589
0.406547
0.312527
0.319842
0.417355
0.343309
0.337341
0.319186
0.300188
0.309402
0.800375
0.69136
0.800818
1.10759
1.27845
1.06506
0.490436
0.466115
0.575622
0.550542
0.870087
1.00271
0.527915
0.550675
0.811672
0.705551
0.771925
0.771675
0.269287
0.333654
0.467348
0.614509
0.258124
0.212963
0.356061
0.326661
0.251226
0.256002
0.260597
0.342415
0.344318
0.359852
0.330646
0.229981
0.214095
0.352534
0.368811
0.218018
0.226775
0.645903
0.629498
0.702936
0.726289
0.925522
0.846032
0.6711
0.636318
0.741254
0.299776
0.281671
0.277028
0.283776
0.37793
0.348767
0.402155
0.438411
0.523562
0.481281
0.35032
0.370656
0.276978
0.273249
0.291338
0.276711
0.273541
0.263928
0.258783
0.256345
0.309707
0.285687
0.328677
0.361599
0.359663
0.37024
0.353981
0.316677
0.229971
0.224122
0.278501
0.392704
0.390915
0.306445
0.299502
0.326631
0.319919
0.978191
0.979194
1.04956
1.05675
0.987035
0.962794
0.989508
0.959192
0.468574
0.460123
0.626874
0.617885
0.668351
0.659398
0.659289
0.669287
0.748909
0.75158
0.956073
0.929366
0.903818
0.931871
0.796462
0.806627
0.921792
0.92798
0.936121
0.958425
0.852306
0.861405
0.819525
0.809151
0.821431
0.811644
0.917355
0.923987
0.894704
0.886764
0.931588
0.925776
0.951167
0.952938
0.994809
0.99582
0.988669
0.988635
1.02579
1.02595
0.996438
0.996446
0.991403
0.991484
0.993013
0.991909
1.00388
1.00314
0.994484
0.994797
0.318312
0.325077
0.281194
0.699841
0.752835
0.715048
0.797405
0.844354
0.806022
0.513468
0.522111
0.307968
0.294882
0.646239
0.610494
0.553239
0.525071
0.465829
0.508846
1.04815
1.04869
0.862377
1.01626
0.274237
0.266065
0.409061
0.415989
0.995781
0.99594
0.974295
0.979545
0.987236
0.983379
0.988411
0.99277
0.993484
0.994704
0.994507
0.993672
0.31651
0.309265
0.497963
0.480672
0.427364
0.411786
0.320477
0.314778
0.396808
0.398377
0.605817
0.604666
0.809236
0.810744
1.1225
1.12152
0.860755
0.861959
1.02458
1.09419
0.404463
0.392658
0.37482
0.365676
0.255143
0.254348
0.299636
0.293944
0.361349
0.386786
0.408513
0.429204
0.279392
0.260493
0.94147
0.828413
0.918368
0.816137
0.698359
0.479275
0.452433
0.579304
0.542914
1.0482
0.815797
0.690067
0.797507
0.619207
0.859832
0.564558
0.3706
0.371699
0.242402
0.267121
0.254492
0.25064
0.333706
0.366711
0.344026
0.337414
0.416161
0.511333
0.575525
0.494755
0.530027
0.6316
0.661731
0.71305
0.628965
0.72838
0.703684
0.747252
0.437876
0.395929
0.414845
0.450894
0.425916
0.532694
0.506926
0.756269
0.852852
0.635627
0.713777
0.888698
0.255394
0.302121
0.341302
0.270956
0.346047
0.353363
0.315008
0.349432
0.29122
0.263853
0.386445
0.407673
0.267095
0.275926
0.245192
0.29396
0.33574
0.361006
0.309663
0.264256
0.576365
0.561125
0.661434
0.634813
0.686616
0.664715
1.05553
1.15536
0.62054
0.593707
0.758276
0.816648
0.314917
0.341101
0.28663
0.275956
0.477896
0.439333
0.383226
0.367664
0.3106
0.293376
0.2676
0.279277
0.263409
0.274178
0.334757
0.359187
0.315912
0.292218
0.359063
0.324118
0.371644
0.363194
0.320671
0.356228
0.226027
0.223188
0.382217
0.360362
0.395526
0.393342
0.282176
0.313199
0.978297
0.975791
0.986528
0.96411
0.961519
0.960324
0.955669
0.955784
0.642941
0.617528
0.472164
0.484056
0.608955
0.604575
0.633324
0.643029
0.654285
0.652801
0.620738
0.611542
0.723543
0.714241
0.933402
0.938117
0.925336
0.95356
0.715189
0.727663
0.813373
0.817261
0.839337
0.843424
0.813192
0.973713
0.970229
0.966418
0.962406
0.911917
0.849333
0.858367
0.828666
0.818498
0.803195
0.800642
0.893071
0.897517
0.904372
0.911033
0.899453
0.891702
0.887994
0.879916
0.926967
0.920837
0.992154
0.991202
0.923905
0.92149
1.00372
1.00372
0.996136
0.995879
0.98862
0.995648
1.02591
1.02588
1.01842
1.01843
0.993291
0.993289
0.991468
0.991623
0.980107
0.980874
0.998931
0.995884
1.00332
1.0041
0.998532
1.00125
0.99555
0.994777
1.02983
1.0407
0.432641
0.372369
0.724132
0.650373
0.579606
0.56886
0.805811
0.801186
0.701413
0.608758
0.740051
0.310066
0.340291
0.224391
0.222041
0.707674
0.736235
0.668525
0.544458
0.577822
0.557431
0.601739
1.0958
0.826192
0.755987
0.838472
0.900569
1.17824
1.12442
0.51137
0.453743
0.399955
0.391063
0.994146
0.98789
0.986325
0.986115
0.999391
0.999937
0.988198
0.985119
0.98982
0.985944
0.993403
0.994833
0.993664
0.994519
0.385781
0.378206
0.313046
0.306124
0.471888
0.489199
1.08423
1.08453
1.07192
1.08779
0.799114
0.857668
0.400687
0.403808
0.519283
0.521158
0.830663
0.835024
0.757777
0.758254
1.12105
1.12181
0.917403
0.920936
0.340039
0.325149
0.472948
0.548692
0.246889
0.244646
0.284832
0.2917
0.262472
0.253595
0.358358
0.385563
0.449797
0.373684
0.287011
0.262492
0.652169
0.610319
0.657616
0.515746
0.565924
0.531615
0.432409
0.531803
0.498772
0.642757
0.620432
0.561284
0.557494
0.292814
0.295362
0.346606
0.376546
0.361461
0.326893
0.295804
0.301568
0.249821
0.257568
0.467705
0.441043
0.599511
0.635848
0.563083
0.551873
0.519369
0.559125
0.574286
0.637977
0.56759
0.597204
0.829181
1.02049
1.12598
0.953568
1.02325
0.411887
0.355793
0.381183
0.517705
0.47664
0.61892
0.592284
0.642364
0.76758
0.700471
0.960746
0.750317
0.658618
0.742102
0.256128
0.304445
0.349623
0.352194
0.345744
0.357276
0.342727
0.301283
0.23361
0.310033
0.346646
0.254027
0.282816
0.345491
0.365821
0.244747
0.246412
0.287091
0.238214
0.542938
0.527947
0.615085
0.651159
0.612521
0.593325
0.800543
0.737266
0.998296
0.964037
1.08061
1.15101
0.823292
0.939007
0.887452
0.713745
0.307936
0.331295
0.363834
0.380474
0.287595
0.30416
0.272934
0.27111
0.261095
0.268221
0.26349
0.271291
0.32889
0.354824
0.376282
0.37265
0.373097
0.366534
0.223272
0.223948
0.378336
0.354823
0.582334
0.576098
0.899495
0.937421
0.913771
0.920847
1.03159
1.03491
1.05168
1.04802
1.00781
1.0031
0.664681
0.673586
0.53275
0.543521
0.479827
0.476288
0.541797
0.532336
0.624795
0.616429
0.648278
0.639777
0.645066
0.635931
0.650559
0.6045
0.594931
0.630129
0.682427
0.692365
0.732011
0.741827
1.05134
1.05138
0.914649
0.907391
0.843013
0.834683
1.05221
1.05427
0.745678
0.72035
0.689991
0.677333
0.774921
0.76982
0.830843
0.834874
0.863695
0.867899
0.925213
0.931576
0.940218
0.914627
0.847802
0.831341
0.839238
0.848684
0.81092
0.820917
0.871385
0.875636
0.906664
0.900457
0.893693
0.901321
0.902254
0.895777
0.917453
0.923607
0.943642
0.938354
0.990353
0.991312
0.956203
0.952039
0.934324
0.936395
0.927985
0.998013
0.998431
0.995556
0.995548
0.993317
0.993321
0.999529
1.00085
1.02508
1.0246
1.0257
1.02545
1.03883
1.03887
0.997794
1.01857
0.994687
0.994689
0.994631
0.994798
0.966649
0.963259
0.99674
0.993708
1.00264
1.00334
0.99255
0.992965
0.998646
1.00134
1.00325
1.004
1.00435
1.00299
0.995149
0.995848
1.0318
1.02891
0.769328
0.831592
0.637052
0.605427
0.572329
0.640795
0.592285
0.731295
0.678291
0.769839
0.870734
0.536846
0.361928
0.349374
0.238332
0.242512
0.226209
0.22827
0.283757
0.245911
0.629911
0.666154
0.366359
0.333182
0.528391
0.491263
0.613293
0.592317
0.536305
0.741408
0.680212
0.732272
1.02655
0.714346
0.647152
0.713376
1.12703
1.02827
0.264644
0.257598
0.515561
0.504499
0.959672
0.962577
0.993493
0.993384
0.984731
0.984576
1.00095
1.00048
1.01241
1.03397
0.986381
0.988929
0.985346
0.989905
0.999767
1.0034
0.992233
0.992475
0.993252
0.993118
0.994526
0.99363
1.00207
1.00207
0.338148
0.330076
0.299318
0.292821
0.382489
0.389122
0.473466
0.481117
1.0873
1.08178
1.08271
0.851076
0.792641
0.326001
0.331624
0.483168
0.481582
0.483011
0.484879
0.715124
0.718501
1.11428
1.11553
0.673421
0.66808
0.864893
0.866431
1.02685
1.02837
1.2082
1.23028
0.291261
0.281318
0.44449
0.526384
0.254202
0.249018
0.305573
0.316001
0.267137
0.254376
0.348602
0.381632
0.357655
0.342393
1.15178
1.19322
0.734678
0.504767
0.428365
0.326565
0.371722
0.340287
0.313417
0.301712
0.285271
0.594275
0.545478
0.826987
0.988543
1.03221
0.495636
0.44465
0.498101
0.669794
0.954494
1.0084
1.19062
1.1567
1.18842
0.432523
0.371851
0.547184
0.581451
0.606873
0.56274
0.677575
0.578616
0.556118
0.888654
0.619171
0.261678
0.235686
0.25279
0.418608
0.526466
0.34847
0.348303
0.279948
0.209415
0.35865
0.341001
0.242736
0.309603
0.248673
0.270946
0.320334
0.352523
0.30263
0.291087
0.547675
0.527479
0.47598
0.461728
0.51425
0.547286
0.580724
0.673007
0.702081
0.786837
0.838671
1.18645
1.17242
0.882856
0.607876
0.650517
0.786594
0.29871
0.321926
0.359425
0.377352
0.281449
0.276022
0.259194
0.263394
0.378183
0.37544
0.2489
0.281082
0.707826
0.716399
0.505009
0.493149
0.840923
0.831033
0.664044
0.654847
0.719407
0.730644
1.06496
1.04062
1.01911
1.02376
0.988499
0.987696
1.04461
0.849903
0.840642
0.647965
0.639509
0.674823
0.687768
0.688016
0.676161
0.473717
0.465005
0.491829
0.479946
0.583011
0.570547
0.600061
0.591188
0.608125
0.642601
0.6315
0.641844
0.633261
0.590238
0.58029
0.66113
0.646048
0.740199
0.730741
0.73944
0.729939
0.991263
0.991437
0.914021
0.920844
0.890185
0.897383
0.854135
0.912689
0.945662
0.865876
0.875202
0.721437
0.722394
0.712025
0.726353
0.804444
0.808227
0.76177
0.773503
0.832687
0.824116
0.855778
0.859946
0.8573
0.983959
0.981866
0.951187
0.956473
0.841085
0.850329
0.875439
0.866233
0.82956
0.83844
0.838249
0.829734
0.886064
0.890443
0.886733
0.912326
0.919212
0.877664
0.869302
0.890023
0.91968
0.913289
0.934391
0.928408
0.932797
0.982246
0.98862
0.968327
0.964997
0.939376
0.946592
0.939816
0.934047
0.99751
0.997642
1.01137
1.03871
0.993577
0.993899
0.993932
0.994598
0.994693
0.995753
0.995673
0.988611
0.98861
1.02423
0.995951
1.03919
1.03941
1.01868
1.0188
1.03878
1.02587
0.993341
0.993305
0.994246
0.994245
0.996335
0.996339
0.971188
0.974336
0.97649
0.978811
1.00017
1.00005
0.995513
0.996908
0.987959
0.986303
0.996504
0.999513
0.995118
0.993489
1.00337
1.00343
1.00337
1.00419
0.994425
0.994733
1.00042
0.997544
1.001
1.00023
1.01888
0.998376
1.00809
0.33157
0.329489
0.29914
0.305331
0.486409
0.443104
0.458907
0.548979
0.856455
1.00244
0.550067
0.871975
0.815615
0.800487
0.503339
0.51264
0.330755
0.299696
0.240967
0.245328
0.320089
0.353758
0.230467
0.236165
0.313808
0.257473
0.718533
0.897857
0.456021
0.423787
0.355123
0.326343
0.66211
0.613688
0.571699
0.501856
0.547961
0.48488
0.56219
0.586234
0.742039
0.647732
0.771908
0.257581
0.238855
0.275366
0.767876
0.659364
0.577385
0.382098
0.39012
0.55281
0.547295
0.708542
0.710079
0.991408
0.99532
1.01598
1.01576
0.989979
0.989834
0.985535
0.985415
0.990787
0.990755
0.99992
1.00039
0.937379
0.939021
0.987472
0.98955
0.983445
0.986504
0.98199
0.98676
0.987116
0.986124
1.00281
1.00624
1.01213
1.01502
0.993516
0.993362
1.03587
1.03527
0.988812
0.986948
0.988812
0.986861
0.987424
0.987576
1.00329
1.00339
0.354522
0.346418
0.292628
0.2987
0.389225
0.382112
0.465953
0.458287
0.462138
0.436316
0.594345
0.645766
0.731945
0.673252
0.463068
0.468605
0.522066
0.533881
0.45162
0.453714
0.51795
0.51712
0.773348
0.77729
1.11678
1.11782
0.762995
0.766839
0.707006
0.706172
0.862608
0.863633
1.0288
1.02907
0.360137
0.354416
0.323058
0.280262
0.308119
0.417147
0.393369
0.252547
0.251851
0.305346
1.01503
0.344116
0.355063
0.354851
0.378512
0.361981
0.366222
0.446085
0.329012
0.34499
0.580558
0.713754
0.985528
0.589798
0.846867
1.21427
1.29882
0.728351
0.816284
1.16289
0.34513
0.331578
0.645506
0.692481
0.608662
0.569648
0.668844
0.695227
0.907333
0.767141
0.765853
0.263507
0.238097
0.400373
0.500345
0.350921
0.347348
0.213105
0.281418
0.261891
0.324615
0.355522
0.344494
0.276773
0.252604
0.559376
0.577525
0.448829
0.481394
0.59475
0.610456
0.694362
0.738814
1.12205
1.00859
0.569657
0.327761
0.305096
0.3454
0.367037
0.281957
0.297601
0.357229
0.321071
0.57348
0.575884
0.419894
0.405811
0.520851
0.519695
0.816829
0.81902
0.967374
0.986376
0.529408
0.520496
0.918049
0.920808
0.601363
0.58999
0.78581
0.783673
0.98587
0.966858
1.03543
1.03268
1.06748
1.02788
1.04138
1.03835
0.900241
0.892856
0.63525
0.627052
0.660754
0.652062
0.749421
0.737001
0.49959
0.490248
0.483861
0.474867
0.471979
0.463995
0.570105
0.577424
0.49718
0.512214
0.602721
0.593951
0.585584
0.595077
0.651109
0.659783
0.614235
0.600339
0.67756
0.668605
0.742194
0.75152
0.732995
0.723659
1.02246
1.02333
0.992427
0.99286
0.922439
0.92866
0.852769
0.844736
0.81239
0.803008
0.948344
0.916982
0.959813
0.9626
0.836892
0.874978
0.710123
0.70948
0.700692
0.68643
0.71014
0.72378
0.785407
0.780653
0.792949
0.782011
0.824265
0.814592
0.815389
0.822177
0.849417
0.840508
0.847656
0.851784
0.884514
0.875949
0.969151
0.972505
0.929657
0.936606
0.943927
0.918684
0.830631
0.840095
0.857955
0.867079
0.858202
0.84931
0.829365
0.820405
0.878831
0.883148
0.922935
0.929258
0.87541
0.866908
0.91559
0.908704
0.914383
0.907571
0.922143
0.927843
0.9915
0.992289
0.977638
0.979079
0.959989
0.971285
0.949503
0.955173
0.930309
0.928067
1.00038
1.00079
1.00254
1.00254
1.00424
1.00462
0.996829
0.996824
0.994791
0.995781
0.994346
0.99448
1.04061
1.04067
0.988618
0.988626
0.995839
0.995758
0.996116
0.996338
0.996053
0.996231
0.99784
0.9979
0.994685
0.994687
0.995474
0.995467
0.99676
0.996912
0.995474
0.995623
0.955546
0.956971
0.970052
0.966729
0.978015
0.975687
0.997548
0.99452
0.998535
0.996521
0.991279
0.989682
0.997019
0.999968
0.992122
0.991505
0.995664
0.995417
0.992973
0.993321
1.00131
0.998607
0.996016
0.994872
0.997597
1.00041
0.995663
0.995649
1.00142
0.99424
0.998392
0.993427
0.998993
0.328229
0.351711
1.01585
1.02765
0.247597
0.241831
0.914409
1.0134
0.341792
0.388354
0.529541
0.500138
0.516117
0.548184
0.548087
0.490898
0.723433
0.652528
0.827549
0.856324
0.608028
0.591764
0.284444
0.299788
0.289851
0.26539
0.25647
0.263804
0.365656
0.363668
0.354802
0.352416
0.228859
0.227939
0.271668
0.28437
0.459962
0.600789
0.253271
0.323239
0.726944
0.892748
0.385052
0.399508
0.374632
0.32012
0.561932
0.520324
0.498533
0.444061
0.425629
0.447956
0.48524
0.527055
0.872717
0.877537
0.989215
1.02087
1.17002
0.791669
0.964744
0.302446
0.317232
0.757972
0.762645
0.561157
0.574287
0.283719
0.272387
0.388733
0.379414
0.437925
0.444544
1.01638
1.02209
0.408597
0.391582
0.990628
0.989747
0.977125
0.973947
0.995106
0.99467
0.993919
0.993986
0.994784
0.994854
0.986284
0.984658
0.990709
0.990657
0.993922
0.992731
0.984225
0.987649
0.939456
0.953588
0.95446
0.956344
0.987279
0.987092
0.992822
0.992383
0.977686
0.973875
0.978302
0.983303
0.990969
0.991858
0.984396
0.985183
1.00137
1.00491
1.00947
1.0125
0.993486
0.994881
1.00117
1.00182
0.995982
0.998048
0.98883
0.986954
0.988807
0.986926
0.991884
0.995995
0.995983
1.00259
1.00269
0.324102
0.331718
0.469015
0.462733
0.383814
0.377482
0.513483
0.506168
0.482278
0.490955
0.411552
0.394146
0.419215
0.402567
0.511904
0.549942
0.751416
0.689963
1.05744
1.0971
0.897176
0.944103
0.475796
0.480981
0.560057
0.571284
0.37571
0.377076
0.559454
0.561163
0.480685
0.480414
0.659212
0.661888
0.935288
0.937706
0.928931
0.930148
1.02855
1.02842
0.713084
0.716615
0.758095
0.757708
0.92577
0.925402
1.14989
1.17838
1.15683
0.358811
0.378632
0.315746
0.310614
0.248449
0.2478
0.391557
0.389189
0.376701
0.623308
0.551166
0.533405
0.431945
0.377909
0.697984
1.18917
1.21614
1.09512
1.03824
1.02446
1.1122
0.458945
0.47895
0.52938
0.502861
0.830772
0.595832
0.295779
0.249732
0.300533
0.288281
0.324929
0.316538
0.225339
0.29312
0.346384
0.349032
0.317493
0.252255
0.562521
0.583725
0.494824
0.509562
0.790381
0.870319
0.333347
0.311348
0.534947
0.532212
0.280873
0.278666
0.412653
0.407545
0.431645
0.423915
0.573493
0.56661
0.867637
0.86681
1.05188
1.05284
0.995512
0.996256
0.675576
0.687614
0.511757
0.732557
0.745589
0.895056
0.934648
0.865203
0.871411
0.598586
0.591101
0.785698
0.734464
0.843101
0.901583
0.985704
0.968261
0.986142
0.965468
1.06745
1.06703
0.869418
0.878857
0.680757
0.6705
0.622628
0.614705
0.66189
0.752184
0.764733
0.689883
0.702521
0.521466
0.511753
0.511053
0.501957
0.508213
0.495478
0.468077
0.459928
0.549627
0.55858
0.549987
0.542754
0.608425
0.601205
0.599864
0.591632
0.675959
0.664369
0.621099
0.610636
0.664903
0.655406
0.693219
0.683989
0.686549
0.677406
0.712238
0.722143
0.71189
0.702523
0.742327
1.01933
1.01891
1.00532
1.00477
0.9916
0.991751
0.9012
0.910701
0.911968
0.862376
0.854568
0.822848
0.813828
0.812826
0.844321
0.960564
0.944156
0.985857
0.973881
0.927422
0.894371
0.812853
0.824199
0.733138
0.758246
0.72471
0.739022
0.699254
0.713567
0.786241
0.789762
0.795679
0.791264
0.783282
0.771944
0.815517
0.805591
0.826144
0.830895
0.822145
0.849298
0.84109
0.91022
0.917215
0.952969
0.957366
0.911451
0.918432
0.867229
0.877333
0.925163
0.949213
0.884036
0.876442
0.843
0.833472
0.840235
0.830946
0.846441
0.838075
0.877202
0.876352
0.868087
0.90945
0.916336
0.914099
0.906924
0.885802
0.883682
0.90142
0.893576
0.933733
0.939346
0.989884
0.984556
0.967818
0.969547
0.990106
0.988857
0.954432
0.960042
0.959146
0.945404
0.941694
0.933833
0.989961
0.991623
0.985965
0.983769
1.00246
1.00208
0.99223
0.994087
1.0038
1.0038
0.992968
0.992169
0.994383
0.996246
0.996231
0.996619
0.99663
0.994778
0.995737
0.993344
0.993396
0.988666
0.988862
0.995757
0.995733
1.02402
1.02396
0.988966
0.988926
0.996307
0.989009
0.996344
0.996338
0.995471
0.995485
0.994238
0.993295
0.994189
0.994345
0.996371
0.996534
0.996261
0.996413
0.98013
0.969058
0.975483
0.978422
0.945998
0.947172
0.999364
0.999667
0.991861
0.990924
0.993958
0.98821
0.989206
0.997423
1.00032
0.991492
0.99206
0.993807
0.99407
0.993032
0.992842
0.996216
0.994839
0.997591
1.00061
1.00297
1.00436
1.00242
0.999444
1.00006
1.00088
1.00261
0.996742
0.998062
0.99324
1.05999
1.05761
0.263193
0.249294
0.256915
0.919878
0.99329
0.279924
0.292772
0.263706
0.30205
0.469794
0.391587
0.514571
0.464773
0.825557
0.90307
0.837789
0.923061
0.798706
0.418215
0.474095
0.477223
0.431048
0.423267
0.322464
0.333687
0.373588
0.396393
0.354414
0.339354
0.254751
0.251907
0.241795
0.24597
0.32293
0.330514
0.329035
0.332024
0.367563
0.355561
0.354614
0.350661
0.345082
0.261676
0.262244
0.264749
0.311723
0.369824
0.34886
0.381918
0.376213
0.316831
0.256717
0.478167
0.498066
1.13852
0.977969
0.474905
0.507817
0.360761
0.350398
0.338859
0.400842
0.385329
0.612912
0.677195
0.387456
0.407847
0.606614
0.637313
0.844663
1.08258
1.11832
1.12997
0.920567
0.299501
0.243551
0.526726
0.623165
0.921114
0.923592
0.511889
0.459426
0.493647
0.360475
0.37384
0.343337
0.326329
0.398144
0.945919
0.950656
1.06529
1.06384
0.402715
0.420659
0.743224
0.729619
0.929551
0.938868
0.970475
0.971455
0.997675
0.998541
0.98848
0.988983
0.995986
0.995928
0.994529
0.994637
0.987883
0.987785
1.00552
1.00554
0.996366
0.996427
0.993587
0.993784
0.995919
0.996733
0.98504
0.986967
0.990696
1.01167
1.03345
0.972492
0.96406
0.943127
0.969949
0.975473
1.03946
1.03476
0.993195
0.981175
0.977354
0.988826
0.987646
0.999224
0.995201
0.992641
0.992307
1.01148
1.01438
0.996862
0.999826
0.992616
0.992587
1.0369
1.02212
1.00373
1.00493
0.997411
0.995329
0.991986
0.992022
0.991925
0.991964
0.994301
0.994349
1.0022
1.00219
0.334884
0.342363
0.370434
0.362595
0.904052
0.960203
0.453814
0.460213
0.365562
0.359891
0.371271
0.365233
0.540935
0.548908
0.472786
0.481391
0.408118
0.390365
0.415238
0.398213
0.540503
0.503572
0.639491
0.588722
0.831979
0.88905
1.06488
1.09267
1.04575
1.10423
1.03729
1.10926
0.365815
0.358621
0.305162
0.310059
0.351613
0.35601
0.386578
0.382675
0.396881
0.396008
0.604805
0.606116
0.516884
0.517243
0.653872
0.654374
0.766886
0.769881
0.884667
0.888454
0.868178
0.870247
1.02822
1.02851
0.687358
0.679845
0.663773
0.660363
0.808047
0.807233
0.960804
1.23976
1.17867
1.20409
0.699541
0.659146
0.335419
0.328807
0.469308
0.445295
0.248962
0.245946
0.245547
0.229269
0.237727
0.251487
0.252292
0.602816
0.678075
0.447238
0.414305
0.408807
0.359757
1.02564
1.26986
1.15396
1.2365
0.901454
0.974086
1.23365
0.657221
0.693561
0.267139
0.23625
0.254555
0.299406
0.30908
0.286189
0.218515
0.597967
0.621686
0.495895
0.492964
0.284373
0.283701
0.396112
0.39084
0.456381
0.447914
0.52735
0.527864
0.806063
0.808283
0.90125
0.907557
1.04725
1.0534
1.00094
0.984157
0.981345
1.04998
1.05628
0.673959
0.685742
0.66216
0.671598
0.55093
0.541366
0.890606
0.93186
0.85892
0.71542
0.726844
0.546819
0.53666
0.784734
0.755252
0.733908
0.902142
0.843925
1.0276
1.02527
1.04304
1.06387
1.03008
0.999231
0.95567
0.859444
0.826932
0.815776
0.580529
0.58877
0.648997
0.636178
0.739491
0.688061
0.700938
0.594348
0.60607
0.508979
0.531232
0.485283
0.493618
0.482464
0.492906
0.488143
0.491494
0.483331
0.610495
0.619036
0.565046
0.565909
0.552052
0.535111
0.527577
0.610458
0.618242
0.684233
0.698612
0.624156
0.634251
0.670338
0.679672
0.665851
0.656979
0.695764
0.720418
0.710886
0.732864
0.721299
0.987181
0.98633
0.982526
0.983808
1.0411
1.0404
0.99195
0.991426
0.932565
0.937943
0.96613
0.968178
0.871945
0.86423
0.863386
0.872569
0.75672
0.745538
0.859221
0.830295
0.883591
0.877552
0.991961
1.02794
0.986539
0.97787
1.05989
1.04882
1.00457
0.969413
0.758417
0.756639
0.770636
0.745799
0.847685
0.884458
0.854807
0.814316
0.69778
0.697472
0.737271
0.75153
0.708123
0.697356
0.77701
0.780358
0.820902
0.81116
0.736126
0.742373
0.761693
0.751102
0.79472
0.785289
0.832074
0.841236
0.884135
0.892202
0.914967
0.921636
0.975497
0.985798
0.979494
0.976784
0.890137
0.873114
0.886636
0.900341
0.931029
0.954054
0.892231
0.868139
0.863176
0.871599
0.834141
0.843173
0.82154
0.812172
0.855108
0.847435
0.87975
0.872532
0.86234
0.870427
0.910444
0.903256
0.908675
0.915749
0.915182
0.921673
0.972816
0.969728
0.991988
0.993507
0.995074
0.984639
0.986222
0.987423
0.978191
0.947843
0.945918
0.951296
0.944594
0.951134
0.993042
0.993219
0.981956
0.980376
0.987901
1.00001
1.00058
1.00264
1.00248
0.98824
0.988239
1.00292
1.00308
1.00369
1.00374
0.999962
0.999972
1.00448
1.00413
0.996262
0.996358
0.995505
0.995491
0.996816
0.996808
0.994628
0.994628
0.995763
0.996066
1.0251
1.02506
1.03894
1.03904
0.988876
0.988816
0.996011
0.996057
0.996102
0.995555
0.995559
0.996833
0.99683