/*--------------------------------*- C++ -*----------------------------------*\
  =========                 |
  \\      /  F ield         | OpenFOAM: The Open Source CFD Toolbox
   \\    /   O peration     | Website:  https://openfoam.org
    \\  /    A nd           | Version:  7
     \\/     M anipulation  |
\*---------------------------------------------------------------------------*/
FoamFile
{
    version     2.0;
    format      ascii;
    class       volScalarField;
    location    "1080";
    object      T;
}
// * * * * * * * * * * * * * * * * * * * * * * * * * * * * * * * * * * * * * //

dimensions      [0 0 0 1 0 0 0];

internalField   nonuniform List<scalar> 
238806
(
0.998648
1.00538
0.968425
1.32383
1.17524
1.00728
0.998025
0.993455
0.993348
0.971936
0.993387
1.18347
1.00226
0.999861
1.23659
1.21773
0.991931
0.985068
0.991788
1.00436
0.993738
0.991493
1.14826
1.01026
1.17913
0.965208
0.977185
1.0045
1.07733
1.18448
1.00337
1.00354
0.994794
1.00153
1.00274
1.00275
0.98608
0.985998
0.99735
1.0285
1.02293
1.27139
1.00106
1.00103
1.00303
0.990983
0.985206
0.977864
1.00066
0.992862
1.00246
1.00374
1.00203
0.999171
1.01129
1.0143
0.966075
0.946861
0.98555
0.952984
0.96778
1.01002
0.980344
0.992406
0.994018
1.0036
1.00222
0.994904
1.0016
1.00129
0.999865
0.999529
1.00063
0.990416
0.997116
1.00565
0.99569
1.00464
1.00471
0.994309
0.996074
0.9984
0.995032
0.995858
0.990132
0.994021
0.994927
1.00515
1.03594
1.01043
1.00511
1.01265
1.00818
0.996916
0.994351
1.00476
1.00499
0.986637
0.974126
1.28454
0.990762
0.994967
0.992207
1.00236
1.00602
0.98902
0.987992
0.987944
0.991052
1.00167
0.998852
0.99031
0.996713
1.00408
1.00239
1.00246
1.00267
1.00979
1.00638
1.00729
1.05562
1.14277
0.989634
0.994608
1.0076
0.997977
1.13979
1.19634
1.00225
1.11069
1.01937
0.960404
0.979527
1.29291
0.962443
0.983365
0.991602
0.991475
0.960311
1.1602
1.09218
1.21399
0.998565
0.996935
0.997216
0.993514
0.992515
0.992911
0.995917
0.994038
0.991242
0.996686
0.992174
0.991471
0.9952
0.988467
0.987794
0.996691
1.0004
0.994323
0.992243
1.00551
0.998031
1.00035
0.997834
1.00103
1.001
1.00292
1.0009
0.987114
0.987259
0.996745
0.993945
1.08252
1.06328
1.10209
0.989717
0.995773
1.00225
0.99634
1.13608
1.19573
1.40868
0.977113
0.960368
0.983409
0.936974
1.1171
0.996707
0.997742
1.00268
1.00275
0.986458
1.03509
0.974142
0.96226
0.976565
1.17105
1.33607
1.07702
1.21164
0.994959
0.989835
0.996539
0.997413
0.995277
0.997942
0.989732
0.988863
0.991179
0.994775
0.980906
0.989119
0.996782
0.999286
1.00008
0.999598
0.979432
0.988665
0.993639
0.988765
0.995509
0.992203
0.989761
1.00453
0.997671
1.00022
1.00285
1.00282
1.00404
1.00403
0.995527
0.995546
1.00476
1.00476
0.994691
0.994687
0.989972
0.989913
0.999688
1.03252
1.07968
1.03765
1.00221
1.00179
0.990534
0.999206
0.994963
1.0008
0.995805
0.995615
0.991561
0.992812
0.997806
0.992753
0.995499
1.01794
1.01417
1.0249
0.994598
0.996846
1.00216
1.00277
1.00521
1.00425
0.983315
0.981379
1.00526
1.00197
0.982165
0.98271
0.99061
1.06895
0.988493
1.24694
1.10244
0.989779
0.994564
0.992386
0.993392
0.99249
0.994288
0.990028
0.987921
1.00267
1.00296
1.00183
0.999077
0.996878
0.999009
0.978216
0.985321
0.995031
0.998107
1.00004
0.998101
0.999716
0.995067
0.992715
0.9839
0.99373
0.998535
1.00581
1.00435
0.988709
0.987965
1.00456
1.00264
1.00551
0.992915
1.00152
1.00292
1.0011
1.00287
0.996091
0.996777
0.992496
0.992456
1.00407
1.00406
1.0037
1.00373
0.995967
0.994226
1.00421
1.00403
0.994544
0.994548
1.00771
0.99658
0.996084
1.13211
1.10813
0.995996
0.995979
0.994934
0.994913
0.971122
0.970466
1.03877
0.976488
1.00767
0.998253
0.995458
1.00151
0.996455
0.996186
1.20867
1.23125
1.0524
1.25994
1.09429
1.09175
0.970153
1.06888
1.00583
1.00457
0.996089
1.00102
1.00104
1.00494
1.00457
0.994111
0.998389
1.00007
0.987609
1.12869
1.06175
1.16137
1.01573
1.01445
1.01989
1.00605
1.40348
1.11631
1.06308
1.09204
0.995867
1.00299
1.01745
0.996674
1.00366
1.0013
0.99724
0.991114
0.996998
0.990453
0.987127
0.987004
0.987319
0.988479
1.00597
1.00198
1.00086
0.996526
1.003
1.00268
0.995411
0.991323
0.995742
0.994861
0.981758
0.977773
0.990114
0.992106
0.993318
0.996601
0.999707
0.999641
0.992512
0.985457
0.977541
0.978896
0.991326
0.996062
1.00417
1.00343
0.990176
0.988199
1.0025
1.00436
0.997281
0.99579
1.00456
1.00459
1.00119
1.00288
0.995518
0.993588
0.993589
1.00408
1.00407
1.00329
1.00334
1.00473
1.00471
0.99603
0.996003
0.989588
0.989705
1.00403
1.00403
0.994432
0.993111
1.00373
1.00374
1.01106
1.01377
1.00765
0.992647
0.995155
0.897568
1.12144
1.08147
1.16262
1.01128
1.01428
0.991326
0.991323
0.965838
0.966342
1.10481
1.03553
1.18673
1.11717
0.959728
1.04378
0.994692
0.997127
1.00631
0.997285
0.996381
0.992865
0.984297
0.996563
1.01943
0.977497
1.15211
1.26327
0.938213
1.17438
0.98001
0.996375
0.992583
0.993121
0.991071
0.993603
0.993618
1.00538
1.00399
1.00122
1.00171
1.00447
1.00474
1.00644
1.00139
0.992843
0.988233
1.19459
0.986575
0.981826
1.00377
1.09269
1.25123
1.1212
1.22201
1.0182
1.04258
0.998689
1.00026
1.00028
1.01703
0.990113
0.995201
0.990571
0.990271
0.991731
0.995165
0.992969
0.992873
0.987253
0.988629
0.989654
0.989931
1.00265
1.00224
1.00269
1.00301
0.993001
0.992363
1.0027
1.00295
0.999538
1.00197
0.992829
0.997316
0.979317
0.977633
1.12489
1.11543
0.988243
0.98999
0.987906
0.988496
0.991583
0.988972
0.997217
0.993365
0.998502
0.999976
0.996724
0.990726
0.981255
0.977521
0.98821
0.987918
0.989568
0.993577
1.00358
1.00504
0.996521
0.999754
0.991387
0.988843
0.989649
0.98642
1.0049
1.00315
1.00204
1.00269
0.992311
0.995104
0.994303
0.995057
1.00275
1.00277
0.997584
0.998361
0.987214
0.987467
1.00002
0.998929
1.00424
1.0042
1.0028
1.00077
1.00398
1.00397
0.99312
0.993105
0.990555
0.994991
1.00437
1.00415
1.00421
1.0042
0.993966
0.99394
0.992975
0.992991
1.00241
1.00442
1.00205
0.999331
1.02948
1.04233
1.02723
1.07904
0.99912
0.995212
0.997205
0.993584
1.00854
0.99267
1.11125
1.07023
1.00336
1.00773
0.997667
0.997129
1.00392
1.00619
0.999467
0.998924
1.07714
1.07789
1.10575
1.07602
1.05432
1.04367
1.0302
0.991413
0.989401
0.990908
0.994546
0.994815
0.997309
0.996618
1.00649
0.997604
0.989906
0.989385
0.98911
0.993401
1.18716
1.19198
1.0107
1.00607
0.993709
0.978717
0.981379
0.996782
1.21274
0.995597
0.990953
1.03479
1.03811
0.995544
0.992117
0.991391
0.991726
1.00542
1.00387
0.996686
0.997246
1.0051
1.0044
0.989253
0.986059
1.01024
1.01311
1.02086
1.09191
0.983518
1.27311
0.979392
0.990103
1.00846
0.890693
1.0921
1.01054
1.00467
0.988226
0.997775
1.27688
1.23505
0.993539
0.993675
0.996174
1.01397
1.00146
1.00361
0.996178
0.987292
0.995267
0.98669
0.998323
0.990284
0.987889
0.991272
0.991871
1.00198
1.00222
1.00161
1.00031
0.997399
1.00125
0.99406
1.00275
1.00015
1.00211
1.00271
1.00301
0.998513
0.997052
0.995541
0.991818
0.978545
0.98091
1.02937
1.06198
0.982274
0.990345
0.991394
0.988462
0.988807
0.990752
0.988117
0.988086
0.988348
0.990248
0.998966
0.99553
0.999277
0.995223
0.987233
0.980655
0.989225
0.98768
1.00409
1.00424
0.994886
0.992879
0.995013
0.993953
0.987348
0.988512
1.00528
0.999866
1.00276
1.00504
1.00012
0.994721
0.991583
1.00338
1.0026
1.0028
1.00453
0.999542
0.998506
1.00162
1.00111
0.988622
0.988226
1.02797
1.03707
1.04498
1.04456
0.996794
0.998927
1.00299
1.00306
1.00381
1.00378
1.00483
1.00484
0.996335
0.996334
0.99457
0.997916
1.00478
1.0045
0.987806
0.987818
0.993264
0.993346
1.00084
1.00087
1.00402
1.00402
0.99524
0.995305
0.992515
0.992543
0.993928
0.993941
1.0076
1.00711
0.993598
0.993732
1.0045
1.00246
0.997133
0.995693
0.990965
1.00933
1.0249
0.993383
0.972347
1.04583
1.00949
1.00961
1.04006
1.08391
0.999599
0.99537
0.996551
0.994721
0.995741
0.997515
1.01732
1.0053
0.999091
1.01806
1.00402
1.00404
0.993725
0.993695
1.00333
1.00775
1.0114
1.01442
0.987218
0.985067
0.996478
0.996431
0.991484
0.99138
0.993775
0.993399
0.998429
0.997957
0.968079
0.967533
1.06331
1.00747
1.0386
1.00112
0.993474
1.00921
1.01384
1.03898
0.939488
1.00747
1.00795
0.998688
0.992277
0.994695
0.996317
0.997586
0.993929
0.997099
1.00557
0.988995
0.993208
0.995833
0.994876
0.992827
1.07125
0.998158
0.995182
0.977205
0.991631
1.00753
1.10587
0.991765
0.996074
0.934383
1.10705
1.00104
0.998602
0.993685
0.994215
1.00531
1.00411
0.99778
0.99833
0.991811
0.993395
0.996682
0.993248
0.98072
0.981795
1.0411
0.996687
1.00178
1.19235
1.31516
1.08199
0.992298
0.998022
0.981366
0.982476
1.06395
1.14059
0.967727
0.958882
1.03166
1.01609
1.00861
1.01198
0.989879
0.993775
0.999798
1.03154
0.994364
0.992053
1.00568
1.00347
0.991874
0.989126
0.988838
1.00595
1.00596
1.00267
1.00266
0.992373
0.993641
1.00271
1.00293
0.991812
0.996153
0.98021
0.982876
0.9768
0.977588
1.04569
1.01312
0.981736
0.977616
0.99983
0.98786
0.9892
0.992684
0.99076
0.993234
0.989989
0.997827
1.00017
0.989754
0.9969
1.00346
1.00502
0.996162
0.994044
1.00066
0.997285
0.997635
0.995194
0.993312
0.994892
1.00503
1.00127
1.00109
1.00281
1.00555
1.00289
1.00272
1.00216
0.996516
0.994533
0.999616
1.00286
1.00453
1.00346
1.00353
1.00286
1.00308
1.00106
0.985134
1.02789
1.03691
0.99572
0.992785
0.997982
0.992553
0.993573
0.993652
1.00362
1.00356
1.00402
1.00401
1.00427
1.0042
1.00396
1.00367
0.994884
0.993806
0.994754
0.997992
1.00474
1.00444
0.988621
0.988558
0.995151
0.998114
0.992972
0.99286
0.99167
0.991763
0.996789
0.996871
1.00281
1.00277
1.00425
1.00424
1.0042
1.00419
0.993436
0.991257
0.993065
0.994378
0.986969
0.986968
0.999234
0.998851
0.995061
0.995091
0.990588
0.99057
1.00018
1.00016
1.00471
1.00401
0.994512
0.994683
1.00754
1.00403
0.990033
1.01452
1.02027
1.04794
1.05427
1.03078
0.991183
1.01033
1.01057
0.995122
0.99374
0.99558
0.994578
0.992974
0.992801
0.996081
0.991445
1.10021
1.15511
1.03769
1.1447
0.98908
0.988683
1.00181
1.00406
0.993014
0.993069
1.0112
1.01416
1.00776
1.00333
1.01126
1.01426
0.9916
0.993038
0.993431
0.99229
0.994919
0.995222
0.996464
0.996513
0.992001
0.992965
0.996497
0.996755
0.991239
0.991316
1.00265
1.00312
0.982841
0.984553
1.08018
1.08047
0.967557
0.968327
1.03377
1.14732
0.987914
0.988643
1.00388
1.00129
0.99406
0.997664
0.999128
0.998225
1.00587
0.997107
1.00035
0.996094
0.986382
0.996257
1.06567
1.01359
1.05941
1.01542
0.967767
1.01277
1.00483
0.986944
0.998373
1.29224
1.04564
0.987693
1.0344
0.936299
1.11296
1.04173
1.00149
1.00116
0.996172
0.990349
0.996044
0.996662
0.999349
1.00253
1.0007
1.0001
0.998946
0.997641
1.0256
0.99289
0.994298
1.00785
0.983101
1.00653
0.989524
0.971492
1.02129
0.944156
0.994552
1.00689
1.00897
1.00336
1.00253
0.984231
0.988997
1.00712
1.06576
0.996236
0.980492
1.10293
1.00028
1.00331
0.993448
0.98936
1.00598
1.00129
1.0029
1.0059
1.00324
1.00209
0.994017
0.99567
0.989247
0.98916
0.998623
1.00171
1.00267
1.00287
1.00203
0.999827
0.988908
0.992409
0.977903
0.978892
0.977142
0.978128
1.10386
1.17335
0.976419
0.978965
1.0048
1.02857
0.987947
0.98979
0.989461
0.991468
0.998416
1.00042
1.00505
1.00409
1.00237
0.999643
0.99582
0.998744
0.992358
0.989749
1.00299
1.00483
1.00479
1.00226
1.00279
1.00141
1.00284
1.00538
1.00227
1.00283
0.993286
0.993483
1.00291
1.00141
1.00294
1.00456
1.00039
1.00328
0.985279
1.00131
0.995133
0.992874
0.9927
0.992622
0.992622
0.992849
0.987895
0.988628
0.99852
1.00105
1.00351
1.00293
1.00312
1.00318
1.00374
1.00324
1.0045
1.00455
1.00426
1.00424
0.994969
0.995041
0.993865
0.994924
0.992529
0.99243
1.00403
1.00383
1.00405
1.00387
1.00485
0.997999
0.998051
0.99808
0.998088
0.991085
0.994638
0.994556
0.98988
0.98996
0.993424
0.995042
1.00413
1.00397
1.00399
1.004
0.996157
0.996222
1.00294
1.00294
1.00448
1.00447
0.997203
0.997271
0.99215
0.994005
1.00393
1.00394
0.994421
0.994212
0.98698
0.993929
1.00024
0.999917
1.00112
1.00086
0.991362
0.991333
0.991061
0.991083
0.994576
0.994859
1.00209
0.999277
1.00394
1.00471
0.99929
1.002
0.9955
0.99461
1.00933
1.00663
0.990932
0.980861
1.03962
1.01507
0.964766
0.989034
1.07378
1.01389
1.03118
0.97786
1.05123
0.996398
1.00331
0.989661
0.98887
1.01006
1.02577
0.986339
0.994073
0.995141
0.99726
0.999157
1.27129
1.02323
1.05749
1.02371
1.0686
1.28797
1.19783
0.985284
0.980001
1.00177
1.00172
0.998204
0.992279
0.985932
0.985699
1.00327
1.00381
0.99147
0.992386
1.00776
1.00333
0.991541
0.993212
0.992253
0.993406
0.999376
0.998919
0.995022
0.995178
0.996545
0.996513
1.05478
1.05509
1.04943
1.05719
1.00383
0.99429
0.991452
0.991652
0.99546
0.995096
0.992598
0.993221
0.995539
0.997025
1.07874
1.07942
0.974204
0.975801
0.987908
0.988411
1.02022
1.00474
0.997974
0.998008
0.996909
0.998656
0.994089
0.997185
1.00612
0.99715
1.01179
0.996174
0.993275
0.995899
0.963261
0.977278
0.982695
0.999684
1.00415
1.01845
1.00391
1.00496
1.00945
0.973504
0.981896
1.04303
1.04194
0.99733
1.00501
1.00027
1.00321
1.00213
0.998844
0.997522
0.999634
0.999085
0.992818
0.994884
0.997212
1.00756
1.03507
0.987756
1.01133
1.00449
1.02355
1.02009
1.01265
0.987776
1.01093
1.05921
1.16339
1.18604
1.04551
1.0799
1.00166
0.999208
0.996416
0.984082
0.990648
0.98742
0.966656
0.989811
1.0248
0.999182
1.20217
0.984871
1.0025
0.99303
1.00098
1.00357
1.00598
1.00681
1.00137
1.00208
1.00604
1.00297
0.998563
1.00244
1.00591
0.992282
1.00342
0.990124
0.991915
0.99157
0.993371
1.00148
0.998009
0.993984
0.996748
0.98586
0.981574
0.981516
0.985109
1.00383
0.984712
1.09967
1.05901
1.14251
1.16909
1.0084
1.08654
1.05539
0.992788
0.987868
0.988714
1.00389
1.00507
0.998968
1.00226
0.995513
0.993484
0.994746
0.996595
0.993083
0.990637
1.00282
1.00472
1.00276
1.00491
1.00283
1.00522
0.993542
0.994303
1.0029
1.00129
1.00331
1.00273
0.994274
0.995085
0.995712
0.995229
1.01934
1.0215
1.03504
1.03251
1.00966
1.00688
0.992925
0.991099
0.995261
0.995201
0.996539
0.995176
1.0022
1.00236
1.00395
1.00393
1.00435
1.00432
1.00371
1.00366
1.004
1.00341
1.00354
1.00445
1.00339
1.00344
1.0036
1.00364
1.03055
1.03045
0.995488
0.995507
0.996042
0.995615
1.03386
1.03461
0.987987
0.988142
0.992726
0.992825
0.999326
0.99724
1.00405
1.00386
1.00408
1.00391
0.988452
0.988539
0.99494
0.99048
0.987824
0.988503
0.991467
0.991338
0.994962
0.994882
1.00409
1.00393
1.00417
1.00442
0.998416
0.998357
1.00424
1.00292
1.00401
1.00402
1.00449
1.00449
0.996143
0.996133
0.988898
0.988821
0.993809
0.991874
0.990191
1.0004
1.00038
0.994952
0.994953
0.991593
0.991614
0.994355
0.995025
1.00126
1.00127
1.00103
1.00118
1.00839
1.00877
0.993119
1.00141
0.992518
0.992541
0.99239
0.992509
1.00151
1.00152
1.00144
0.998548
1.00409
1.00471
0.994709
0.994703
0.999157
1.00187
1.00398
1.00471
1.00459
1.0032
0.994239
0.995144
0.998553
0.996851
1.02851
1.0354
1.02831
1.01814
0.993187
1.0048
1.00414
1.03687
1.0061
1.06393
1.02352
0.999803
0.995529
0.995139
0.984495
0.986941
0.989987
0.982666
0.992511
0.989512
1.0006
1.00483
0.995428
0.993799
0.993326
0.993701
0.998801
1.00633
1.00079
1.04788
1.01998
1.03707
1.16481
1.0252
1.00342
1.00661
1.10935
1.02555
0.983908
0.982251
0.995483
0.994983
1.00224
1.0041
0.992336
0.992302
0.984141
0.983961
1.00381
1.00381
1.00847
1.02089
0.992338
0.991452
1.01125
1.01423
1.01134
1.01435
0.99136
0.991894
0.991873
0.991689
0.99332
0.992132
1.00221
1.00221
0.995473
0.994646
0.995236
0.995287
0.995884
0.995819
0.998997
0.99901
1.05981
1.05438
1.05387
0.994303
1.00374
0.996441
0.9964
0.995749
0.995172
0.993081
0.99278
1.00619
1.00624
1.0737
1.0746
1.00304
1.00438
0.970561
0.971476
1.03345
1.03282
1.20762
1.22366
0.990381
0.99201
1.0123
1.01165
0.994371
0.996889
1.00244
1.00349
0.994451
0.996714
1.00681
0.998072
0.99298
0.992683
1.18643
1.17903
0.976021
1.01383
0.991929
0.995879
1.00289
0.999829
1.00305
0.992044
0.991093
1.00956
0.997039
1.01246
1.15725
1.18829
0.99414
0.981993
0.984162
1.01494
1.13065
1.09467
1.21033
1.18062
1.1713
1.00227
0.998828
0.981837
0.979735
0.979376
0.98069
0.994009
1.01064
1.00633
1.11589
1.00333
0.984219
0.987011
0.99435
0.996707
1.00613
1.00085
1.0061
1.00076
0.99631
1.00237
1.00603
0.999331
1.00286
0.994256
1.00269
1.00309
1.00572
0.990309
0.990037
0.988969
0.993598
0.999815
0.999776
0.998535
0.99525
0.990698
0.977427
0.978341
0.991838
1.00446
1.18156
1.17479
1.03788
0.978659
0.979078
1.00416
1.00299
1.0046
1.00371
1.00506
0.996815
0.994571
0.994338
0.995639
1.00275
1.0048
1.00025
1.00125
0.998927
0.998936
1.00262
1.00221
0.995682
0.99572
0.999233
0.999226
0.993197
0.993149
1.04329
1.0253
1.01152
1.01438
0.997132
0.996388
1.03014
0.991006
0.991572
0.991304
0.993124
0.989503
0.989415
0.993543
0.993338
0.992063
0.99212
1.00083
0.998294
1.00433
1.00475
1.00345
1.00338
1.00391
1.00408
1.00428
1.00398
1.00397
1.00145
1.00159
1.00476
1.00483
1.00463
1.0046
1.00395
1.00393
0.991843
0.991836
0.995979
0.995958
0.995355
0.995347
0.996358
0.994059
0.995021
0.990791
0.990939
0.995662
0.993978
0.990796
0.989156
1.00402
1.00381
1.0035
1.00452
1.00422
1.00421
1.00407
1.0039
1.00426
0.997681
0.997766
0.995161
0.995368
0.988453
0.988403
0.989224
0.989413
0.991569
0.989795
1.00423
1.00428
1.00411
1.00396
1.00436
1.00064
1.00059
0.99853
0.998579
1.0008
1.00419
1.00417
1.00486
1.00486
1.00448
0.993002
0.993875
0.992155
0.992043
0.988406
0.987793
0.989895
0.990064
0.996369
0.996364
0.996433
1.01301
0.991707
0.99177
0.991767
0.992365
0.992448
0.994093
0.994009
0.986998
0.987032
1.00132
0.987137
1.00993
1.01033
1.00167
1.00193
1.008
0.999584
0.991467
0.991423
0.991925
0.991951
0.995449
0.995443
1.00164
1.00164
0.994882
0.994871
1.00361
1.00382
0.99994
1.00185
0.998153
0.997978
0.999356
1.00217
0.996817
0.995166
1.00156
1.00164
1.00389
1.00471
0.994518
0.994683
1.00058
0.997637
1.00115
1.00035
0.990202
0.98643
0.987644
0.995386
0.995595
1.01459
1.01536
1.0006
1.00149
1.00399
1.00791
1.02921
1.12471
1.00328
1.08012
0.954268
0.906527
1.00834
1.00852
1.00201
0.99444
0.984147
0.984797
1.00937
1.00617
0.982501
0.983059
0.999414
0.985376
1.01109
1.10664
0.998377
1.00033
0.99508
0.994679
1.00785
1.00041
0.995958
1.01356
1.01332
0.989842
1.02079
1.02393
1.05105
0.997917
1.02998
1.013
0.999022
1.00508
0.996761
0.989785
0.987882
1.00399
1.00401
0.996406
0.999233
0.985636
0.980134
0.994112
0.995962
1.01693
1.01691
0.989206
0.989165
0.984717
0.984573
0.990777
0.990695
1.00326
1.00326
0.999272
1.00357
0.992292
0.991437
0.994607
0.993797
1.01124
1.01421
0.998927
0.996133
1.01139
1.0144
1.01208
1.01508
0.992183
0.992003
1.01195
1.01144
0.98722
0.985218
0.987176
0.985143
0.985499
0.985532
1.0035
1.0036
0.99705
0.996327
0.995017
0.994997
0.995263
0.995317
0.997135
0.997122
0.99139
0.991133
0.99545
0.999213
1.00622
1.00415
1.00264
1.00255
1.00334
1.005
0.991766
0.991626
0.995836
0.996276
1.00268
1.00304
1.0755
1.07629
0.983707
0.979978
1.00303
1.00389
0.96888
0.969648
1.03195
1.03109
0.991485
0.99126
0.989642
0.988293
0.998576
1.00489
0.999262
0.995525
0.998616
0.999993
1.10991
0.994082
0.993554
1.00659
0.998628
1.00674
0.997622
1.00512
0.995186
0.987646
0.995526
1.0101
1.17845
1.00897
1.03667
1.2185
1.28323
1.00051
1.02798
1.17329
0.987881
0.991719
0.983351
0.993725
0.973143
0.969846
1.01983
0.979789
1.12288
1.02498
0.999622
0.99236
0.991935
0.996468
1.00429
1.00096
1.00603
0.996546
1.00254
1.00051
1.0027
1.00166
1.00592
1.00329
0.997757
0.990388
0.986134
0.999042
0.999834
0.987433
0.984029
0.979278
0.983168
1.15912
1.08121
0.983741
1.00445
1.0035
1.00331
1.00496
0.998093
1.00144
1.00278
1.00164
0.998952
0.998498
1.00379
1.0054
1.00384
1.00331
0.994899
0.995249
1.00256
1.00506
0.996221
0.996234
0.995024
0.995053
0.996099
0.99613
0.994746
0.994891
0.994153
0.993059
1.02369
1.02173
1.04523
1.01696
1.02788
1.02574
0.981193
0.981972
0.991407
0.993221
0.991202
0.993024
0.994688
0.994449
0.989041
0.989077
0.990414
0.99046
0.996541
0.996708
1.00475
1.00471
1.00278
1.00406
1.00404
1.0041
1.0028
1.00287
1.0041
1.00412
1.00329
1.00131
1.00416
1.00414
1.0043
1.00432
1.00409
1.00408
1.0093
1.00981
0.99413
0.994128
0.996328
0.996318
0.996032
0.995601
0.996093
0.995667
0.994991
0.993991
0.983994
0.983612
0.993333
0.997133
0.994061
0.995761
0.989327
0.990998
1.0039
1.00469
0.999225
0.997142
1.00445
1.00335
1.00448
1.00477
1.00419
1.00404
1.00453
1.00481
1.00406
1.00389
0.990743
0.990874
0.995844
0.995957
0.990844
0.991113
0.998095
0.995068
0.994802
0.99472
0.991186
0.991022
0.996487
0.996556
1.00297
1.00305
1.0041
1.00394
1.00419
1.00417
0.996352
0.996418
1.00488
1.00488
1.00446
1.00445
1.00487
1.00477
0.995752
0.995755
0.992121
0.991924
0.988974
0.992244
0.988144
0.9878
0.992027
0.993913
1.00284
1.00283
1.00244
1.00241
1.00438
1.00467
0.995833
0.995847
0.993014
0.994315
0.992172
0.992274
1.01262
1.01301
0.987066
0.987121
0.987191
0.987258
0.987107
0.987096
0.994018
0.994152
0.993203
0.993292
0.99259
0.992618
0.993706
0.993725
0.995587
0.995721
0.994815
0.994952
0.995798
0.995337
0.998803
0.998807
0.994581
0.994586
1.00155
0.998631
1.00444
1.00241
1.0008
1.00057
0.999398
1.0022
0.995131
0.99511
0.996801
0.996814
0.994551
0.994697
1.00194
0.999234
0.996171
0.994951
0.997664
1.00055
0.99556
0.995548
0.999899
0.99013
0.995993
0.991361
0.986809
0.995625
0.994789
1.04882
1.04073
0.995769
0.996529
1.05582
1.07288
0.995109
0.97803
1.00796
1.01436
1.03578
1.05075
1.05024
1.01926
1.02981
1.00421
1.04251
1.08268
0.993351
0.99396
0.985587
0.988627
0.995609
0.98616
0.986119
0.987472
1.01679
1.01719
1.00586
1.0198
0.990406
0.983269
0.994961
1.0005
0.978436
1.04245
0.986821
1.00079
1.0009
1.10932
0.998636
0.99714
0.991886
0.997408
0.995148
0.993479
0.99352
0.999395
0.991532
0.994849
1.00125
1.00366
1.06822
1.0937
1.09215
1.0499
1.21312
1.16009
1.29123
1.0018
1.00343
0.993592
0.994994
0.987073
0.98655
0.989976
0.985427
1.00293
1.00296
1.00191
1.00409
1.02097
1.02388
0.989574
0.9858
0.994087
0.994076
1.00271
1.00271
0.998004
0.998103
0.992306
0.992325
0.993253
0.993331
0.985906
0.984084
0.990613
0.990531
1.00181
1.00182
0.983983
0.988177
0.994336
0.993007
0.999126
1.00344
0.985771
0.985647
0.993503
0.993415
1.00774
1.00335
1.01122
1.01419
0.994515
0.993607
0.996141
0.998932
1.01136
1.01438
1.01164
1.01464
0.991699
0.993369
0.998017
0.998486
0.996066
0.998271
0.987258
0.985243
0.987198
0.985184
0.990125
0.995678
0.995654
1.0028
1.0029
0.994936
0.995034
0.995969
0.995661
0.996186
0.996175
1.00435
1.00436
0.993163
0.993159
0.991671
0.992261
0.991843
0.992508
0.991471
0.992944
1.00611
1.00355
1.04143
1.0627
0.977836
0.967801
0.999844
0.999853
1.00598
1.00639
0.9915
0.991591
1.00139
1.00214
0.994646
0.994182
1.00522
1.00494
0.966333
0.966534
0.966551
0.966389
1.02989
1.02899
0.998955
0.996698
0.991802
0.993827
0.968656
0.969457
1.1432
1.17164
1.17967
0.990484
0.984507
0.995604
0.995961
0.996848
0.996805
1.00598
1.00625
1.00029
1.00246
0.992363
0.990042
0.991386
0.991128
1.01247
1.18124
1.20778
1.13901
1.11933
1.12894
1.16711
1.00044
0.993122
1.01724
1.01745
1.02838
1.00574
1.00262
0.996226
0.988599
0.992075
0.992209
0.991365
0.997732
1.00302
1.00096
1.00616
1.00277
0.999943
0.987375
0.982362
0.999373
0.997953
0.997992
1.03046
1.00427
1.00383
0.999757
0.999603
0.993663
0.993195
1.00482
1.00483
0.992398
0.992456
1.00324
1.00266
0.994619
0.994787
1.02854
1.03361
0.988262
0.988674
0.995488
0.995468
0.996243
1.0036
1.00439
0.994349
0.995096
0.993236
0.993207
0.994434
0.994414
0.994328
0.993164
0.995706
0.994074
0.993753
0.993151
0.994612
0.992967
1.04526
1.04504
0.994124
0.993375
0.996924
0.996838
0.99151
0.99332
0.989592
0.989337
0.989467
0.991054
0.991203
0.988111
0.988142
0.990382
0.990352
1.0003
0.99746
0.995038
0.995215
1.00419
1.00407
1.00494
1.00496
1.00416
1.00412
1.00388
1.00385
1.00256
1.0005
1.00103
1.00117
1.00481
1.00482
1.0045
1.00447
1.00404
1.00403
1.00353
1.00357
1.00455
1.00453
1.0041
1.00747
1.00727
1.00081
1.00039
0.991833
0.991832
0.996105
0.995181
0.995619
0.996026
0.995589
0.996074
0.995648
0.994059
0.993287
0.991045
0.997666
0.99263
0.993497
0.99473
0.998748
0.990026
0.990176
0.988094
0.988022
0.990698
0.989073
0.990897
0.989241
1.004
1.00377
0.999127
0.99705
1.00449
1.00343
1.00446
1.00475
1.00384
1.00484
1.00485
1.00424
1.00423
0.992324
0.992244
0.991673
0.991808
0.987867
0.987844
0.988294
0.988175
0.995163
0.998117
0.988597
0.988611
0.99308
0.993178
0.996631
0.996705
1.00418
1.00291
1.0048
1.00476
1.00479
1.00422
1.00421
0.996021
0.996089
0.998475
0.996287
1.00488
1.00487
1.00478
1.00478
0.993752
0.992966
0.988916
0.98869
0.997349
0.99743
0.987918
0.987855
0.987882
0.989691
0.987798
0.988492
1.00409
1.00409
1.00049
1.00049
1.00464
1.00464
0.993008
0.995211
1.00407
1.00406
0.992008
0.991151
0.993552
0.995502
0.995503
0.995426
0.995456
0.992957
0.99424
0.991586
0.991591
0.98722
0.987493
0.987362
0.98745
1.00146
1.00168
0.987157
0.98713
0.986268
0.987178
0.995493
0.9955
0.993771
0.993806
0.991976
0.991392
0.991779
0.991888
0.994902
0.995041
0.995358
0.995491
0.995186
0.991934
1.00386
1.00386
0.994639
0.994968
1.00379
1.00371
1.00192
0.999955
1.00017
0.994779
0.994765
0.999408
1.00218
0.994728
0.994718
0.995167
0.995163
0.992632
0.992566
0.996505
0.995045
0.997744
1.00083
1.00316
1.00458
1.00235
0.999254
1.00018
1.00104
1.00044
0.994691
0.995694
0.991225
1.0406
1.03988
0.988542
0.996521
0.999649
1.03612
1.06121
0.996007
0.992604
0.989249
1.00274
1.00842
0.980571
1.01355
0.999496
0.889248
1.04081
1.02319
1.04388
1.05396
0.968688
0.994119
0.993808
1.01294
1.01532
0.993866
0.994796
1.00455
1.00737
0.997813
0.997086
0.990433
0.99161
0.984616
0.984436
1.00358
1.00467
1.00971
1.00975
1.01652
1.00571
1.01943
1.01324
1.00663
0.990052
0.990381
0.991597
1.00033
0.996145
1.01054
1.00285
1.00951
0.999766
0.98651
0.974873
0.979345
1.17353
1.05754
0.995246
0.99456
0.989769
0.999823
0.998807
0.99702
0.995901
1.00009
1.02582
0.993985
0.99472
1.00364
1.02153
1.06076
1.09661
1.11236
1.1216
1.27614
0.981388
0.972846
0.979594
0.985216
1.03152
1.03442
0.979962
0.990977
0.985105
1.00279
1.00171
0.99406
0.989642
1.00289
1.00326
1.00325
1.04155
1.04075
0.986263
0.990188
0.990907
0.990997
0.988263
0.994151
1.00271
1.00225
1.00408
1.00408
0.992178
0.99208
0.994598
0.994602
0.992513
0.992555
0.986816
0.986691
1.00572
1.00577
0.996365
0.996454
0.993769
0.993766
1.00179
1.00178
1.00273
1.00273
0.989376
1.00813
1.02073
0.992748
0.994159
1.00781
1.0112
1.01414
1.02186
1.01706
0.993587
1.00774
1.00334
0.998919
0.996118
1.00783
1.00336
0.99187
0.991348
1.01191
1.0149
0.995923
0.99912
0.990984
0.990979
1.01283
1.00863
0.993101
0.993488
0.998502
0.9963
0.990292
0.990343
0.990187
0.990244
0.993714
0.993749
1.00238
1.00238
0.995018
0.995114
0.998349
0.99777
0.992428
0.996972
0.995681
0.996003
0.995967
0.99597
0.996144
0.996134
1.00379
1.00377
0.99474
0.99473
0.991616
0.992172
0.991789
0.99241
0.993367
0.991692
0.999442
0.995645
1.00349
0.990176
1.04575
1.06006
1.03504
1.06707
1.03064
1.07029
1.00273
1.00202
0.996428
0.996494
0.994779
0.994882
0.991925
0.991669
0.991236
0.991213
1.00464
1.00514
0.99676
0.997304
1.00619
1.006
1.00169
1.00223
0.976984
0.977426
0.972427
0.973323
1.02814
1.02764
0.998681
1.00131
1.00521
1.00584
0.981003
0.979045
0.957071
1.23452
1.18036
1.1989
0.989602
0.991387
0.994256
0.994589
0.996644
0.995727
0.995661
0.996282
0.986585
0.995791
0.998677
1.00118
1.00007
1.00514
1.008
1.00393
0.998301
0.989462
0.997101
1.01723
1.26453
1.16343
1.23112
1.06684
1.09211
1.2232
0.96764
1.00505
0.989594
0.990366
1.0013
1.00361
0.992338
1.00301
0.997042
0.982106
0.979173
0.998584
0.997644
0.991876
0.991329
1.0033
1.0033
0.992189
0.99226
1.00339
1.00388
0.994916
0.995268
1.00442
1.00437
1.02453
1.03339
0.99133
1.0002
0.984644
1.02803
1.03643
0.995897
0.995886
1.00014
1.00022
0.998053
0.998
0.994425
0.9951
0.993269
0.99642
0.996422
0.996267
0.996302
0.994351
0.993219
0.99343
0.994262
0.995696
1.01809
1.01641
1.02695
1.04247
1.01987
1.00459
0.992498
0.994848
0.996663
0.997093
0.997052
0.999192
0.989683
0.989773
0.989213
0.988767
0.98887
0.987961
0.98794
0.989013
0.988086
0.99344
0.993756
0.992029
0.99038
0.995987
0.995547
0.994374
1.00483
1.00484
1.00516
1.00498
1.00382
1.00453
1.00467
1.00404
1.00405
1.00478
1.00482
1.00317
1.00305
1.00478
1.00479
1.00442
1.00438
1.00405
1.00392
1.0039
1.00428
1.00458
0.994104
0.994086
0.993439
0.993109
1.02472
1.02414
0.994131
0.99413
0.995869
0.995894
0.993252
0.993213
0.996042
0.995581
0.99635
0.996337
0.996196
0.995772
0.99333
0.994132
0.993159
0.993181
0.989486
1.01462
0.99216
0.993714
1.03954
1.03091
0.999642
0.981848
0.993737
0.99538
0.988062
0.988049
0.993547
0.9973
0.996761
0.992909
0.994143
0.995863
0.9906
0.988993
1.0022
1.00232
1.00399
1.00375
1.00433
1.00313
0.997551
0.999648
1.00165
1.00175
1.00486
1.00487
1.00479
1.00451
0.994333
0.99427
0.990368
0.990288
0.996051
0.997596
0.997849
0.997928
0.988557
0.987811
0.988048
0.988103
0.995209
0.998125
0.991188
0.988581
1.00286
1.00291
0.998778
0.998719
1.00108
1.00117
1.00479
1.00481
1.00432
1.0043
1.00478
1.00483
1.00285
1.00289
0.998294
0.998234
1.00476
1.00476
0.995332
0.995338
0.99144
0.992601
0.994025
0.996299
0.996293
0.997515
0.996132
0.991377
0.993534
0.989227
0.988318
0.987796
0.992263
0.992275
0.991036
0.991055
1.00048
1.00409
1.00409
1.00436
1.00409
0.987273
0.987288
1.00409
1.00409
1.00408
1.00408
0.999652
0.999683
1.00455
1.00427
0.995591
0.995689
0.994961
0.994965
0.995859
0.995871
0.992485
0.992448
0.987564
0.987824
1.00632
1.00651
1.00915
1.00954
0.987098
0.987054
0.994072
0.994085
0.994092
0.994913
0.994923
0.995733
0.995748
0.992
0.992024
0.991185
0.991292
0.99499
0.994984
0.994897
0.994901
1.0229
1.02341
1.00041
0.995802
0.995346
0.999811
0.999816
0.9949
0.994892
1.00091
1.00086
1.00367
1.00387
0.999948
1.00192
1.0047
1.00467
0.994811
0.994795
1.00213
0.999388
1.00414
1.0047
0.996763
0.996712
0.994553
0.994553
0.990163
0.990156
1.00172
0.99643
1.00219
0.999119
0.994996
0.99638
1.00119
0.99839
0.997695
1.00055
0.994607
0.994593
0.994584
0.994579
1.00041
1.00033
1.00131
0.998267
1.0025
0.9993
0.994677
1.00041
0.99253
0.993991
0.999295
0.992227
0.996484
0.99857
0.994517
0.994158
0.992771
0.992448
1.04236
1.04427
0.995208
0.994182
0.993702
0.99625
1.00645
1.01005
1.01489
0.98916
0.989565
1.01341
0.994419
0.995514
0.99537
1.01313
1.01561
0.996021
0.995729
0.987377
0.985094
1.01147
1.01711
0.98926
0.988823
0.985172
0.995975
0.984097
0.984978
1.00887
1.00864
1.00546
1.00563
1.00975
1.00542
0.983364
0.989109
1.00563
1.01888
1.01092
1.00906
1.00557
0.982776
0.989584
0.996188
0.996439
0.989676
0.98352
1.00414
0.986035
0.999523
0.988783
1.00199
1.00001
1.03534
1.07317