/*--------------------------------*- C++ -*----------------------------------*\
  =========                 |
  \\      /  F ield         | OpenFOAM: The Open Source CFD Toolbox
   \\    /   O peration     | Website:  https://openfoam.org
    \\  /    A nd           | Version:  7
     \\/     M anipulation  |
\*---------------------------------------------------------------------------*/
FoamFile
{
    version     2.0;
    format      ascii;
    class       volScalarField;
    location    "0.07";
    object      p;
}
// * * * * * * * * * * * * * * * * * * * * * * * * * * * * * * * * * * * * * //

dimensions      [0 2 -2 0 0 0 0];

internalField   nonuniform List<scalar> 
238806
(
6.62185e-07
6.5827e-07
-6.58203e-08
9.27564e-08
5.08455e-09
5.95553e-07
6.03773e-07
6.88496e-07
7.61547e-07
1.43149e-07
1.65166e-07
2.30662e-07
6.88873e-08
6.48003e-08
-9.92655e-08
-1.14234e-07
1.1708e-07
7.65837e-08
2.1221e-06
2.13913e-06
8.72266e-08
7.7295e-08
-9.80501e-08
-6.56949e-08
-3.7213e-08
7.8784e-08
2.1369e-08
7.33527e-08
-2.13029e-08
-1.1113e-07
1.89091e-06
2.09988e-06
4.45991e-08
6.62217e-08
1.29427e-07
1.44202e-07
3.58674e-10
3.17669e-10
1.2003e-07
2.4736e-07
1.91739e-07
-2.79612e-08
2.35002e-06
2.58387e-06
1.91069e-06
1.89159e-06
-5.11278e-08
-3.58203e-08
8.81406e-08
1.09599e-07
2.63253e-07
2.73855e-07
7.61375e-08
7.14836e-08
-1.75218e-10
-1.79255e-10
1.53682e-07
4.73762e-08
1.40371e-07
2.16903e-07
1.59901e-07
3.13623e-07
1.90147e-07
2.569e-07
2.98209e-07
1.70392e-06
1.70542e-06
8.6717e-07
7.77944e-07
4.34374e-07
3.86334e-07
6.01501e-08
4.12093e-08
1.06614e-07
8.51645e-08
1.9859e-07
1.8425e-07
1.29009e-07
1.43579e-07
1.33339e-09
1.32335e-09
6.01886e-08
8.87221e-08
1.02931e-06
1.08632e-06
3.79004e-07
3.39124e-07
2.69695e-08
-5.15518e-08
6.54443e-08
2.8163e-08
3.14422e-07
2.01834e-07
1.95456e-06
1.90254e-06
2.51782e-07
2.79447e-07
1.44132e-07
1.08701e-07
-1.80099e-08
1.68236e-06
8.76276e-07
8.26577e-07
7.40015e-07
7.42895e-07
3.19239e-08
2.54817e-08
9.20925e-08
7.4933e-08
6.36084e-08
4.25096e-08
1.9072e-07
2.13077e-07
2.44419e-07
2.34385e-07
7.22848e-08
7.99031e-08
2.97726e-10
3.48542e-10
1.90629e-10
-1.32452e-07
-1.26714e-07
8.50689e-07
8.02564e-07
6.6443e-07
6.73014e-07
-1.25035e-07
-1.46126e-07
-4.3429e-10
2.42673e-09
2.57462e-07
-6.99295e-09
4.59782e-08
-4.10481e-08
1.17651e-07
2.64464e-07
1.7966e-06
2.01568e-06
-2.43752e-07
-7.29513e-08
-1.25459e-07
-7.52653e-08
1.82755e-07
1.24315e-06
9.97453e-07
1.11388e-06
1.05363e-06
7.36804e-07
7.79249e-07
5.18309e-07
4.83388e-07
3.27834e-07
3.07511e-07
2.17328e-08
1.29706e-08
7.24479e-08
6.0394e-08
5.76687e-08
4.06496e-08
7.94413e-08
7.07222e-08
1.78931e-07
1.67381e-07
2.73388e-07
2.62883e-07
1.25343e-07
1.39875e-07
1.59949e-09
1.60652e-09
3.5645e-10
3.16817e-10
5.48296e-08
7.93794e-08
-5.07775e-08
-3.92477e-08
-2.06098e-08
9.57703e-07
9.0367e-07
2.96634e-07
2.83482e-07
-1.11088e-07
-1.36723e-07
-6.75347e-08
6.97388e-08
-1.31485e-08
4.0118e-08
1.00241e-06
9.17953e-07
2.1776e-06
2.43759e-06
2.33145e-06
2.57064e-06
9.81954e-07
8.19494e-07
1.40682e-07
3.83285e-10
1.47187e-07
-4.56235e-08
-6.2845e-08
2.15431e-09
-6.90365e-08
2.03465e-06
2.08615e-06
1.11014e-06
1.05018e-06
9.78439e-07
8.67732e-07
3.29635e-07
2.94344e-07
4.30299e-07
4.62557e-07
-5.97269e-08
-6.64039e-08
5.0747e-09
-2.43618e-09
1.06164e-08
2.39225e-08
1.46788e-08
2.89781e-08
7.95512e-08
9.89399e-08
1.90139e-07
1.72751e-07
2.09696e-07
2.46583e-07
2.37078e-07
2.4492e-07
1.28225e-07
1.42956e-07
3.29207e-09
3.5348e-09
1.16136e-09
1.19187e-09
4.03542e-10
3.81866e-10
5.4902e-10
5.38099e-10
3.50874e-07
4.02834e-07
3.6066e-08
1.02711e-07
-1.30261e-07
-1.41119e-07
-4.07099e-09
-3.35974e-09
7.51686e-07
7.08266e-07
3.52089e-07
3.68988e-07
2.93484e-07
2.67473e-07
1.41113e-07
1.52684e-07
5.27841e-09
8.70697e-09
5.24783e-08
1.13434e-07
1.86464e-06
2.20647e-06
2.08418e-06
2.35997e-06
1.88823e-06
2.1046e-06
1.83646e-07
1.85597e-07
8.17897e-07
9.10632e-07
1.90553e-07
2.17078e-07
-1.49498e-08
-3.14299e-08
2.41323e-07
-5.64825e-08
-8.10504e-10
1.77394e-07
1.25466e-07
1.85124e-06
1.78921e-06
1.40968e-06
1.33287e-06
9.34933e-07
9.88774e-07
5.751e-07
6.14708e-07
5.79061e-07
5.83211e-07
4.47538e-07
4.32924e-07
-1.4718e-08
-1.16955e-08
-4.44356e-08
-5.40059e-08
5.91061e-09
-9.39753e-10
1.50587e-09
-8.50812e-09
2.38277e-08
7.05034e-09
2.27111e-08
1.9383e-09
5.41522e-08
3.88216e-08
6.89451e-08
7.01005e-08
1.38298e-07
1.19511e-07
1.95323e-07
1.88438e-07
2.20589e-07
2.01662e-07
7.4915e-08
7.6749e-08
1.12567e-07
1.15238e-07
1.05901e-07
9.57624e-08
1.59036e-09
1.57725e-09
2.3771e-09
2.51906e-09
1.15959e-09
1.10071e-09
1.27177e-09
1.28402e-09
2.70246e-10
2.48833e-10
5.466e-10
5.57667e-10
3.2847e-10
5.03697e-08
7.60179e-08
-1.077e-07
-1.04069e-07
-2.61303e-10
-2.60852e-10
3.40648e-08
3.68454e-08
-3.46924e-08
-2.64876e-08
7.04623e-07
6.59966e-07
7.37435e-07
7.33691e-07
3.14667e-07
3.30038e-07
2.56495e-07
2.44855e-07
-2.26817e-07
-6.44687e-08
-1.12568e-07
-5.84942e-08
4.35382e-07
5.71205e-07
1.32024e-06
1.99429e-06
1.45972e-06
1.21603e-06
1.15388e-06
2.12713e-06
1.91435e-06
2.24476e-07
2.27131e-07
4.25059e-07
5.32591e-07
6.02836e-07
8.28719e-07
-2.17706e-07
-3.24868e-08
-7.94586e-08
3.03141e-07
3.05572e-07
2.22659e-08
8.38582e-08
2.00156e-07
-2.17908e-08
2.29909e-07
6.11661e-08
7.59728e-07
6.70147e-07
1.82646e-06
1.95391e-06
1.35955e-06
1.34997e-06
1.39693e-06
1.24566e-06
1.22975e-06
1.0671e-06
1.91947e-07
1.84125e-07
2.58558e-07
2.89927e-07
6.55916e-07
6.45952e-07
7.18699e-07
6.90818e-07
4.57905e-07
4.55964e-07
4.11686e-07
3.84372e-07
2.83191e-07
2.55443e-07
-6.19179e-08
-5.5195e-08
4.1241e-08
4.80887e-08
6.2227e-09
5.17136e-11
3.45166e-09
-5.84224e-09
-6.05387e-09
-1.95786e-08
-2.01378e-08
-3.7737e-08
5.1256e-08
3.75077e-08
7.62031e-08
8.02009e-08
1.26228e-07
1.09838e-07
2.10079e-07
2.1844e-07
1.37849e-07
1.39866e-07
1.04773e-07
1.16167e-07
1.01354e-07
1.03783e-07
1.17133e-07
1.75921e-09
1.74988e-09
3.35032e-09
3.59731e-09
1.95478e-09
1.8471e-09
1.88354e-09
1.98521e-09
1.17845e-09
1.14195e-09
7.38356e-10
7.82831e-10
2.84921e-10
2.64028e-10
3.63532e-10
3.55455e-10
1.11532e-09
1.14435e-09
3.36726e-08
1.7803e-07
3.65969e-08
-2.99075e-08
-2.4053e-08
-2.10043e-07
-1.25659e-07
-1.56781e-07
-1.28721e-07
-1.68571e-10
-1.76374e-10
2.80729e-09
2.97609e-09
-3.56644e-08
-3.27802e-08
-3.16093e-08
-3.37551e-08
-1.1932e-07
-1.37159e-07
7.0031e-07
8.50493e-07
6.3926e-07
6.25154e-07
4.25319e-07
4.32902e-07
3.29422e-07
1.68195e-07
1.36661e-07
2.01548e-07
-2.56919e-09
-1.12339e-07
-2.07576e-08
-7.26419e-08
1.20495e-06
2.11742e-06
1.74831e-06
1.73283e-06
1.65255e-06
1.63785e-06
1.59547e-06
2.29568e-06
2.53893e-06
1.50938e-07
1.52419e-07
2.18683e-07
1.98048e-07
2.75402e-07
2.48586e-07
8.55344e-07
7.55246e-07
1.59225e-07
1.80867e-07
9.45605e-08
2.13692e-08
3.10977e-08
-5.32528e-08
-2.35953e-07
-8.48966e-08
-1.35855e-07
-8.12199e-08
-1.38561e-08
9.46375e-08
5.46085e-07
5.89281e-07
1.19815e-06
1.15605e-06
1.63936e-06
1.57379e-06
1.3253e-06
1.48885e-06
1.7776e-06
1.69397e-06
1.18503e-06
1.2523e-06
2.1707e-07
2.15518e-07
3.6589e-07
3.25605e-07
4.80537e-07
5.46426e-07
5.13888e-07
5.16692e-07
6.5093e-07
5.89522e-07
3.59506e-07
3.60157e-07
3.85879e-07
3.98175e-07
2.76949e-07
2.94245e-07
-3.83638e-08
-4.2865e-08
-1.18991e-07
-9.65475e-08
5.19514e-08
6.15037e-08
2.71107e-08
3.42612e-08
1.28816e-08
2e-08
1.28992e-08
2.26012e-08
4.47378e-09
-3.79313e-09
-2.31834e-09
-1.47889e-08
-1.45926e-08
-3.02912e-08
6.50948e-08
7.86061e-08
4.81053e-08
3.58848e-08
1.00808e-07
1.03473e-07
8.75601e-08
9.49453e-08
1.14866e-07
1.00467e-07
1.44948e-07
1.68172e-07
1.41108e-07
1.36926e-07
2.49393e-07
2.53105e-07
1.6497e-07
1.72866e-07
1.36587e-07
1.28729e-07
1.16426e-07
1.04915e-07
8.68419e-08
7.86163e-08
2.04082e-09
2.01471e-09
1.55826e-09
1.57306e-09
2.41946e-09
2.55645e-09
1.52704e-09
1.53697e-09
1.13597e-09
1.19606e-09
1.51201e-09
1.48299e-09
8.61164e-10
8.08324e-10
4.23391e-10
4.27361e-10
2.87822e-10
3.08565e-10
2.57746e-10
2.59564e-10
3.65897e-10
3.22148e-10
7.98659e-10
7.29991e-10
5.66073e-10
5.6039e-10
-6.57017e-08
-3.04795e-08
3.59571e-07
2.07377e-07
-4.85708e-08
-4.59046e-08
2.93255e-08
6.85182e-09
-2.37558e-08
5.88833e-10
-1.08851e-07
-9.90007e-08
-1.5521e-10
-1.59384e-10
1.08666e-11
4.36988e-11
-1.55713e-09
-1.98264e-09
-4.71186e-09
-3.95431e-09
-1.56875e-08
-1.76222e-08
-3.27099e-08
-4.15442e-08
-1.97782e-08
-3.95768e-08
5.78833e-07
4.68644e-07
8.29873e-07
9.54318e-07
9.89971e-07
1.08802e-06
5.80983e-07
6.50594e-07
4.75067e-07
4.85234e-07
3.05033e-07
3.35506e-07
2.36609e-07
2.35432e-07
-9.96471e-08
-1.25927e-07
9.76314e-08
8.95227e-08
3.69499e-08
1.18496e-08
-1.93283e-08
2.51976e-07
1.61989e-07
1.16718e-06
1.0926e-06
1.89527e-06
1.50018e-06
1.46874e-06
1.41684e-06
2.24265e-06
2.48898e-06
1.37074e-07
1.38367e-07
2.5665e-07
2.32633e-07
2.03004e-07
2.05225e-07
6.61524e-07
7.30722e-07
9.51912e-07
1.09173e-06
-1.04082e-08
3.55876e-08
-1.33419e-07
1.34523e-08
9.91934e-08
9.59927e-08
2.08482e-07
-2.00306e-08
3.08446e-07
2.9085e-07
2.45047e-07
6.48906e-08
8.97826e-09
-9.2853e-08
1.19976e-08
6.74322e-07
6.16291e-07
1.69734e-06
1.55568e-06
1.51559e-06
1.52385e-06
1.58399e-06
1.40919e-06
2.60786e-07
1.7713e-07
2.5728e-07
2.64517e-07
2.2683e-07
4.75496e-07
5.31812e-07
5.67009e-07
5.00287e-07
6.26173e-07
7.30791e-07
6.15584e-07
6.3886e-07
4.91865e-07
5.25996e-07
3.06833e-07
3.15276e-07
4.04985e-07
4.062e-07
3.52927e-07
3.16122e-07
-1.92457e-08
-2.3022e-08
-4.36865e-08
-3.85234e-08
-8.28221e-08
-9.26157e-08
-5.67213e-08
-6.47091e-08
3.392e-08
4.4998e-08
4.81298e-08
5.66419e-08
2.87479e-08
3.67187e-08
1.90199e-08
1.25545e-08
1.20185e-08
2.28819e-08
7.59105e-11
-1.11297e-08
-9.1304e-09
-2.41682e-08
6.97242e-08
8.50398e-08
8.36579e-08
8.81118e-08
7.25032e-08
6.47675e-08
1.55199e-07
1.41658e-07
1.52712e-07
1.31111e-07
1.61307e-07
1.51586e-07
2.01161e-07
1.99741e-07
2.25884e-07
1.68864e-07
1.65615e-07
1.53117e-07
1.77263e-07
9.47712e-08
9.47621e-08
1.14165e-07
1.26812e-07
8.38849e-08
9.28749e-08
2.24258e-08
2.38398e-08
2.03512e-09
2.03011e-09
1.5533e-09
1.54945e-09
1.68049e-09
1.68712e-09
2.64023e-09
2.47418e-09
1.90703e-09
2.01861e-09
1.90254e-09
2.0081e-09
1.18411e-09
1.12401e-09
1.09351e-09
1.1092e-09
7.92056e-10
7.61866e-10
8.68913e-10
9.07238e-10
7.81352e-10
8.23781e-10
4.83423e-10
5.04354e-10
3.35919e-10
3.11813e-10
3.62845e-10
3.69778e-10
3.42149e-10
3.4686e-10
2.61533e-10
2.63012e-10
3.62355e-10
3.19725e-10
3.71823e-10
3.26998e-10
8.31346e-10
7.97193e-10
3.44543e-10
1.55795e-10
2.73285e-10
-1.64303e-08
-2.02693e-08
3.9791e-07
2.41048e-07
4.29778e-07
4.36721e-07
3.86071e-07
4.48658e-07
6.5965e-07
-5.43002e-08
-4.81062e-08
2.28233e-08
4.03644e-08
1.01572e-08
2.91443e-08
-6.35877e-08
-9.26841e-08
-2.5006e-08
-3.91954e-08
6.28443e-09
5.00639e-09
-4.6085e-11
-4.10436e-11
-1.58018e-10
-1.62611e-10
-1.76303e-10
-1.80755e-10
-7.61029e-11
3.84103e-11
9.81513e-09
1.04792e-08
2.39066e-09
2.63174e-09
-2.24001e-09
-1.72279e-09
-3.25064e-09
-2.61544e-09
-2.0949e-08
-1.87785e-08
-3.68869e-08
-1.79036e-08
-4.14856e-08
-3.91908e-08
-3.32771e-08
3.02918e-07
3.57766e-07
7.12364e-07
5.03885e-07
8.19361e-07
9.73154e-07
7.37864e-07
6.50893e-07
6.85985e-07
7.2016e-07
4.68171e-07
4.96498e-07
3.10574e-07
3.05784e-07
3.8051e-07
4.26766e-07
1.86561e-07
1.92911e-07
-6.83694e-08
-7.55367e-08
1.23192e-07
1.17816e-07
1.01494e-08
7.4972e-08
2.33891e-07
1.33472e-07
1.26038e-06
1.34531e-06
1.12296e-06
1.10541e-06
1.39334e-06
1.22549e-06
2.06713e-06
1.84621e-06
1.66451e-07
1.68108e-07
2.10619e-07
1.91027e-07
3.21667e-07
4.22227e-07
6.69468e-07
6.04712e-07
1.01483e-06
1.11746e-06
1.18171e-07
1.03455e-07
-7.49344e-08
-9.63103e-08
-7.67972e-08
-1.48406e-07
7.32425e-08
6.6212e-08
2.28335e-08
3.35876e-09
-7.86952e-08
-6.9426e-08
2.2776e-07
1.89359e-07
-4.8786e-08
3.52067e-09
1.39849e-06
1.68149e-06
1.28476e-06
1.23228e-06
1.47183e-06
1.30227e-06
1.50436e-06
1.58567e-06
3.16192e-07
3.08676e-07
3.0417e-07
4.15882e-07
4.68076e-07
5.792e-07
5.1224e-07
7.44195e-07
7.36481e-07
5.62154e-07
5.8624e-07
3.19797e-07
3.20255e-07
3.44785e-07
3.68018e-07
-3.86763e-08
-3.44162e-08
-4.79807e-08
-5.34542e-08
-9.02104e-08
-7.84032e-08
-5.16969e-08
-4.44155e-08
-6.41016e-08
5.60382e-08
6.67991e-08
4.42861e-08
3.82e-08
1.28365e-08
2.07891e-08
2.37229e-08
1.17004e-08
3.31659e-09
2.25111e-08
1.11513e-07
1.14584e-07
6.07916e-08
5.46133e-08
8.61954e-08
7.96706e-08
1.15303e-07
1.05866e-07
1.55934e-07
1.71274e-07
1.45296e-07
1.37073e-07
1.57311e-07
1.59885e-07
2.81417e-07
2.84921e-07
2.84382e-07
2.80322e-07
2.01435e-07
1.87084e-07
1.85207e-07
8.57607e-08
8.58795e-08
1.21053e-07
1.35431e-07
8.82499e-08
9.78026e-08
2.02998e-09
2.02168e-09
2.00941e-09
2.00438e-09
1.5758e-09
1.59514e-09
1.58007e-09
1.5992e-09
2.73509e-09
2.86011e-09
2.5605e-09
2.73337e-09
1.96207e-09
2.07397e-09
1.58435e-09
1.51172e-09
1.26065e-09
1.2221e-09
1.43641e-09
1.45985e-09
1.05644e-09
1.07296e-09
9.2567e-10
8.96805e-10
5.42349e-10
5.21913e-10
8.57568e-10
8.83545e-10
6.65288e-10
6.33252e-10
8.40308e-10
8.82181e-10
7.40733e-10
7.82e-10
3.84173e-10
3.64011e-10
4.46611e-10
4.61328e-10
3.34444e-10
3.56514e-10
3.59837e-10
3.69905e-10
3.5009e-10
3.57946e-10
2.6936e-10
2.6813e-10
3.60656e-10
3.18646e-10
3.35296e-10
3.37203e-10
6.4797e-10
6.33455e-10
7.98483e-10
8.17198e-10
5.76966e-10
5.72785e-10
4.74384e-10
4.66225e-10
2.65205e-07
2.24522e-07
2.04046e-07
-3.05615e-08
-4.38919e-08
1.72407e-07
6.19425e-08
1.22894e-07
3.20192e-08
3.61391e-09
3.18338e-09
3.38347e-07
3.07108e-07
-5.70833e-08
-5.63597e-08
-4.04275e-08
-3.57547e-08
2.80364e-08
2.75196e-09
-2.39404e-07
-6.97425e-08
-1.17495e-07
-8.85697e-08
6.17695e-09
6.80249e-09
3.70891e-09
3.94193e-09
-4.3793e-10
-4.49199e-10
-1.69297e-10
-1.71731e-10
-1.62324e-10
-1.57444e-10
-1.68019e-10
-1.73513e-10
-1.17539e-10
-1.50391e-11
-1.28962e-11
-2.16714e-11
4.07306e-08
4.44398e-08
2.2323e-09
2.40844e-09
2.65526e-09
3.56174e-09
3.11822e-08
3.39296e-08
6.77675e-10
2.76144e-10
-4.88401e-09
-5.75701e-09
-1.89125e-08
-1.69558e-08
-2.41539e-08
-2.56043e-08
-3.09636e-08
-2.64852e-08
-3.22668e-08
-1.09139e-07
7.46118e-07
6.50469e-07
1.10664e-06
9.75175e-07
5.61332e-07
5.33384e-07
4.61779e-07
5.17671e-07
3.40602e-07
3.46049e-07
2.46132e-07
2.10587e-07
2.19073e-07
2.61864e-07
-1.129e-07
-7.24343e-08
-6.63657e-08
-6.16395e-08
-4.80763e-08
1.42679e-07
1.20042e-07
1.94489e-08
2.88794e-08
6.7555e-07
3.84651e-07
5.21365e-07
3.76412e-07
8.53655e-07
7.42043e-07
1.32109e-06
1.70396e-06
1.50918e-06
1.25588e-06
1.21895e-06
1.87817e-07
1.72022e-07
1.5732e-07
1.62724e-07
2.41907e-07
2.67457e-07
5.92555e-07
4.9083e-07
4.05451e-07
2.91269e-07
3.88539e-07
1.93121e-07
1.0593e-07
5.61421e-08
8.48471e-08
1.07002e-09
6.02287e-08
-1.06865e-07
8.54092e-08
1.79637e-07
1.57879e-07
1.173e-07
8.33828e-08
4.26712e-08
4.00762e-08
-5.82106e-08
-5.68464e-08
1.19226e-07
5.72084e-07
4.77998e-07
1.06264e-06
1.07085e-06
1.37026e-06
1.44206e-06
1.21065e-06
1.20582e-06
3.90849e-07
4.01669e-07
3.04821e-07
2.99454e-07
4.07152e-07
4.66385e-07
5.28304e-07
5.79124e-07
4.86851e-07
5.03963e-07
6.53285e-07
6.58893e-07
3.53791e-07
3.43317e-07
-2.86404e-08
-2.50099e-08
-4.98962e-08
-4.32207e-08
-4.89245e-08
-4.35711e-08
-1.03522e-07
-1.12913e-07
-3.85956e-08
-3.22374e-08
-7.58513e-08
-7.36042e-08
4.22025e-08
3.23796e-08
4.45605e-08
5.22337e-08
8.53387e-09
2.36267e-08
7.76625e-08
7.82748e-08
6.51861e-08
6.05121e-08
9.64849e-08
1.0484e-07
1.04675e-07
9.21065e-08
1.52143e-07
1.57042e-07
1.31021e-07
1.23789e-07
1.78706e-07
1.78104e-07
2.53746e-07
2.50948e-07
2.2134e-07
2.25372e-07
2.23404e-07
2.06825e-07
8.47486e-08
8.27409e-08
7.76731e-08
7.77142e-08
1.02748e-07
1.08566e-07
2.04857e-09
2.058e-09
1.56511e-09
1.58489e-09
1.60121e-09
1.60226e-09
1.43321e-09
1.38378e-09
1.6836e-09
1.70988e-09
3.24824e-09
3.32091e-09
2.92377e-09
2.82252e-09
2.32441e-09
2.1919e-09
2.1378e-09
2.06927e-09
1.92912e-09
2.03347e-09
1.40551e-09
1.47753e-09
1.0852e-09
1.06635e-09
1.48814e-09
1.46423e-09
1.2048e-09
1.16099e-09
8.77063e-10
8.45231e-10
7.41745e-10
7.12132e-10
8.21949e-10
7.71887e-10
7.96875e-10
8.22641e-10
8.49242e-10
7.92997e-10
6.37863e-10
6.0517e-10
8.67517e-10
9.07071e-10
8.65845e-10
8.40298e-10
4.63331e-10
4.48727e-10
4.2028e-10
4.00795e-10
4.61595e-10
4.83073e-10
4.62898e-10
4.79921e-10
3.53067e-10
3.74705e-10
5.43102e-10
5.65262e-10
4.48122e-10
4.29681e-10
1.14706e-10
1.32194e-10
2.41707e-10
2.45514e-10
2.67844e-10
2.60681e-10
2.99661e-10
3.02111e-10
3.64291e-10
3.20916e-10
3.14867e-10
3.16269e-10
6.47636e-10
6.3346e-10
7.45287e-10
7.32448e-10
6.55797e-10
6.48195e-10
5.50396e-10
5.54849e-10
5.49298e-10
5.54824e-10
4.26542e-10
4.21106e-10
2.62532e-10
2.37592e-10
1.56209e-07
1.85355e-07
-1.13493e-09
7.81645e-09
1.44614e-07
1.62853e-07
1.40421e-08
-2.40592e-08
1.02021e-07
1.43166e-08
1.46724e-07
6.01194e-08
6.39986e-08
9.70393e-07
1.11604e-06
-7.15182e-08
-5.88981e-08
-8.95194e-08
-3.61287e-08
-4.28129e-08
-1.79715e-08
-3.71927e-08
1.73378e-07
-1.25603e-08
1.05162e-07
-2.31997e-08
-3.39161e-08
-8.37072e-08
-7.73202e-08
-1.92633e-08
-1.39358e-08
4.74027e-09
5.98764e-09
-2.26215e-10
-2.31588e-10
-4.11486e-10
-3.78811e-10
8.23689e-11
9.75823e-11
-1.25885e-10
-1.31498e-10
-1.69581e-10
-1.65006e-10
-8.47892e-11
-5.39492e-11
-1.9499e-11
-1.08898e-11
2.69527e-08
2.92989e-08
3.2148e-08
3.49518e-08
2.44713e-09
2.37599e-09
1.27614e-10
-1.29002e-10
-1.22705e-09
-2.00524e-09
-2.40418e-09
-2.72959e-09
-1.41801e-10
-6.4458e-10
-2.14977e-09
-1.62932e-09
-6.95073e-09
-5.95458e-09
-1.76566e-08
-1.58036e-08
-1.98322e-08
-2.21849e-08
-3.4566e-08
-3.68872e-08
4.57877e-07
4.24635e-07
5.10713e-07
4.21022e-07
9.94301e-07
1.13201e-06
8.04279e-07
8.97287e-07
4.42076e-07
4.15249e-07
3.80407e-07
3.86539e-07
2.98676e-07
3.3274e-07
2.65318e-07
2.99582e-07
-5.94849e-08
-2.35018e-08
1.68001e-08
4.80399e-08
9.32691e-08
1.5677e-07
1.53224e-07
5.29818e-08
5.80619e-08
3.8255e-07
3.3364e-07
1.15175e-06
9.90856e-07
1.46005e-06
1.67517e-06
1.29987e-07
1.34203e-07
1.79358e-07
1.73202e-07
1.0396e-06
1.14841e-06
5.35339e-07
6.0551e-07
8.09884e-07
6.73831e-07
7.21277e-08
7.53064e-08
-1.35513e-08
1.53153e-07
1.05377e-07
2.54419e-07
1.94361e-07
8.40761e-08
9.56826e-09
1.17598e-07
1.13641e-07
-5.42881e-08
-8.07761e-08
-8.60379e-08
-9.53387e-08
1.65339e-07
1.96544e-07
9.3115e-08
6.6702e-08
8.74167e-08
9.34032e-09
-4.97554e-08
-6.27519e-09
-3.20241e-08
-2.70113e-08
1.21322e-06
8.57988e-07
9.50615e-07
7.80897e-07
1.19524e-06
1.20693e-06
1.8483e-06
2.12223e-06
1.80588e-06
9.50915e-07
9.52779e-07
1.19058e-06
1.15976e-06
4.41558e-07
4.53199e-07
2.90048e-07
3.22806e-07
3.30399e-07
3.6592e-07
5.11207e-07
4.51648e-07
5.66764e-07
5.46407e-07
-2.27807e-08
-1.95763e-08
-3.05195e-08
-3.42232e-08
-3.75884e-08
-3.27791e-08
-7.55646e-08
-6.82483e-08
-9.38139e-08
-1.23521e-07
-1.02295e-07
-1.09715e-07
-1.06945e-07
-7.10278e-08
-8.57676e-08
-5.6575e-08
3.94129e-08
3.05497e-08
8.41391e-08
8.54562e-08
6.63703e-08
7.137e-08
6.65192e-08
5.95648e-08
1.16682e-07
1.27343e-07
9.53609e-08
8.42408e-08
1.69306e-07
1.75054e-07
1.79754e-07
1.78647e-07
2.26161e-07
2.23894e-07
2.47574e-07
2.29286e-07
9.37081e-08
9.1477e-08
3.60396e-09
3.47721e-09
1.62566e-09
1.59854e-09
1.45219e-09
1.42491e-09
1.54934e-09
1.54307e-09
1.54438e-09
1.55806e-09
1.36863e-09
1.40401e-09
1.39128e-09
1.39389e-09
2.13192e-09
2.04426e-09
2.79072e-09
2.668e-09
2.49704e-09
2.57711e-09
2.63104e-09
2.80773e-09
2.05164e-09
2.16325e-09
2.26494e-09
2.40363e-09
2.19502e-09
1.93834e-09
2.04326e-09
1.83124e-09
1.74887e-09
1.66155e-09
1.35437e-09
1.28756e-09
7.7802e-10
7.54714e-10
1.0984e-09
1.12886e-09
1.3856e-09
1.40505e-09
1.32769e-09
1.30871e-09
1.36522e-09
1.36059e-09
1.29521e-09
1.34213e-09
9.19645e-10
9.45019e-10
7.86765e-10
7.56687e-10
6.16767e-10
5.87674e-10
6.64691e-10
6.42712e-10
8.08016e-10
6.66437e-10
9.42696e-10
9.23843e-10
7.57359e-10
7.15705e-10
7.97277e-10
7.54854e-10
5.74618e-10
5.48169e-10
4.23642e-10
4.49595e-10
4.63823e-10
4.4536e-10
4.2421e-10
4.4063e-10
3.76934e-10
3.58468e-10
2.91626e-10
3.09105e-10
6.47221e-10
6.33264e-10
5.39049e-10
5.5899e-10
3.94189e-10
4.08898e-10
4.75113e-10
1.84045e-10
1.80687e-10
3.56048e-10
3.59995e-10
3.25051e-10
3.28632e-10
2.98835e-10
2.92303e-10
2.82184e-10
2.8102e-10
2.87504e-10
2.84571e-10
3.05798e-10
3.04262e-10
3.18181e-10
3.15699e-10
3.24004e-10
3.24517e-10
3.70505e-10
3.25854e-10
1.12655e-09
1.15523e-09
7.20341e-10
7.22803e-10
6.08766e-10
6.11301e-10
5.83357e-10
5.71511e-10
5.285e-10
5.34025e-10
5.61359e-10
5.65768e-10
4.66402e-10
4.61958e-10
3.91311e-10
3.93044e-10
2.87609e-10
3.46337e-10
-7.02973e-08
-8.25737e-08
2.45589e-08
3.24981e-08
-4.07631e-08
3.74984e-08
3.635e-08
2.02619e-08
-1.541e-08
7.62362e-08
-2.60871e-08
2.76799e-07
-2.83603e-09
-1.92902e-09
1.29837e-07
1.22163e-07
8.47971e-07
8.63183e-07
2.69955e-07
3.07385e-07
-6.51294e-08
-6.42302e-08
4.19463e-08
5.16549e-08
-2.25208e-08
-6.99169e-09
7.66712e-09
6.43619e-08
1.25616e-07
2.51469e-08
-3.30185e-08
-6.53058e-08
-8.47979e-08
-2.21019e-08
-4.81552e-08
-9.91275e-08
-7.62479e-09
-7.5159e-09
3.67309e-09
4.32088e-09
1.04408e-09
-7.63071e-11
-2.85914e-10
-2.83101e-10
-3.18965e-10
-3.12951e-10
-4.31498e-10
-3.96566e-10
9.14042e-11
9.47345e-11
-1.14931e-10
-1.10449e-10
-1.37699e-10
-1.33922e-10
-1.73959e-10
-1.78383e-10
-1.7624e-10
-1.80421e-10
-1.16583e-10
-1.22136e-10
-9.25495e-12
2.40185e-11
1.50875e-12
-7.34918e-12
1.68208e-10
1.79621e-10
4.36432e-08
4.75105e-08
3.7644e-08
4.08945e-08
3.91813e-09
3.80837e-09
5.58714e-09
5.31101e-09
2.00511e-09
-3.715e-09
-1.43778e-09
-3.42252e-09
-3.07521e-09
2.28043e-08
2.11082e-08
-5.03269e-09
-4.1916e-09
-1.21253e-09
-7.81649e-10
-5.68853e-09
-4.81689e-09
-9.45926e-09
-1.08038e-08
-2.27318e-08
-2.02769e-08
-1.9983e-08
-1.79553e-08
-2.63413e-08
-2.42006e-08
-1.1881e-07
-1.31501e-07
4.90481e-07
4.74188e-07
4.72179e-07
3.82931e-07
8.82232e-07
8.78218e-07
9.92798e-07
1.10802e-06
3.94554e-07
3.69984e-07
5.31661e-07
5.38996e-07
2.77098e-07
2.74634e-07
-1.23716e-07
-1.39283e-07
-5.74734e-08
1.34639e-07
1.44593e-06
1.53124e-06
1.47681e-07
1.42952e-07
1.25418e-06
5.43722e-07
4.91107e-07
7.57717e-07
5.52951e-07
1.3178e-08
3.73879e-08
1.14247e-07
2.98108e-07
2.27251e-07
1.92737e-07
4.75052e-08
-7.16597e-09
-2.8568e-08
-1.15961e-07
-1.17436e-07
-1.32618e-07
1.70602e-07
2.19535e-07
6.57012e-08
6.28193e-08
1.11691e-08
3.76363e-08
-3.07817e-08
5.63292e-07
4.53912e-07
3.95856e-07
7.33946e-07
7.47501e-07
7.95532e-07
8.4495e-07
9.81882e-07
8.52038e-07
1.51639e-06
1.51959e-06
1.87932e-06
1.84003e-06
8.40985e-07
8.38656e-07
1.02962e-06
1.05717e-06
3.96801e-07
4.22577e-07
3.44226e-07
3.55358e-07
4.19935e-07
3.74932e-07
-2.19356e-08
-1.78459e-08
-9.61867e-09
-7.49814e-09
-1.69171e-08
-2.18586e-08
-2.63809e-08
-4.97376e-08
-5.65476e-08
-6.98167e-08
-7.42357e-08
-1.24772e-07
-1.21819e-07
-9.49654e-08
-3.75094e-08
-4.80301e-08
-7.22839e-08
1.12221e-07
1.18483e-07
9.17657e-08
9.38798e-08
5.55583e-08
5.00627e-08
1.28492e-07
1.40557e-07
1.60944e-07
1.60062e-07
2.1036e-07
2.18075e-07
1.34597e-09
1.41557e-09
7.14395e-09
6.85651e-09
1.62997e-09
1.66744e-09
3.55956e-09
3.66549e-09
1.73692e-09
1.70163e-09
1.53044e-09
1.52103e-09
1.53961e-09
1.54816e-09
1.58346e-09
1.58223e-09
1.5654e-09
1.3164e-09
1.25264e-09
1.49348e-09
1.49523e-09
1.44329e-09
1.39786e-09
1.72231e-09
1.73459e-09
2.59402e-09
2.70468e-09
3.09803e-09
3.07709e-09
3.14084e-09
3.18906e-09
3.1329e-09
3.35726e-09
3.00554e-09
2.24511e-09
2.28547e-09
2.32649e-09
2.46938e-09
1.93213e-09
2.03156e-09
1.78647e-09
1.80496e-09
1.23967e-09
1.30163e-09
1.32739e-09
1.39761e-09
8.88745e-10
8.65178e-10
1.10958e-09
1.08048e-09
1.29696e-09
1.26386e-09
1.36576e-09
1.56409e-09
1.53955e-09
1.07795e-09
1.04012e-09
1.12955e-09
1.14635e-09
1.26181e-09
1.27029e-09
9.2538e-10
8.93975e-10
1.00652e-09
9.79977e-10
7.74112e-10
8.19006e-10
6.57393e-10
6.28572e-10
6.48033e-10
6.70587e-10
6.9487e-10
7.78311e-10
7.47701e-10
8.83429e-10
8.43585e-10
6.91434e-10
7.15367e-10
7.98658e-10
8.2551e-10
6.84823e-10
7.25928e-10
5.03927e-10
4.83393e-10
4.87669e-10
4.01179e-10
3.83363e-10
5.06583e-10
5.2943e-10
4.6099e-10
3.80231e-10
3.95948e-10
3.25724e-10
3.43893e-10
3.29553e-10
8.51047e-10
8.34077e-10
5.59916e-10
5.80859e-10
4.79735e-10
5.05198e-10
4.37594e-10
4.53291e-10
3.5449e-10
3.47891e-10
3.07785e-10
3.17129e-10
4.11724e-10
2.97567e-10
2.28857e-10
3.34189e-10
3.38319e-10
2.51225e-10
2.55008e-10
2.67012e-10
2.66265e-10
2.82087e-10
2.75027e-10
2.93496e-10
2.90491e-10
3.09526e-10
3.08582e-10
3.12822e-10
3.10094e-10
3.11824e-10
3.10943e-10
3.20068e-10
3.19743e-10
3.32306e-10
3.32458e-10
1.01604e-09
9.90228e-10
7.69026e-10
7.50021e-10
6.93153e-10
6.98128e-10
7.35377e-10
7.41423e-10
7.4867e-10
7.60601e-10
6.34427e-10
6.41382e-10
5.86444e-10
5.79703e-10
5.90394e-10
6.04732e-10
5.39697e-10
5.43993e-10
4.84041e-10
4.75063e-10
4.58879e-10
4.55691e-10
3.35302e-10
3.34814e-10
2.87994e-10
4.33486e-10
3.16699e-10
1.97368e-09
2.01518e-09
6.2237e-07
5.4883e-07
4.10628e-08
1.52599e-07
1.02099e-07
4.33493e-08
1.61565e-09
1.00804e-07
1.38378e-07
2.56624e-08
-2.75723e-08
-1.88832e-07
3.34708e-09
2.9618e-09
7.2277e-08
6.776e-08
3.17433e-07
2.80088e-07
7.09636e-07
7.15974e-07
9.67839e-07
1.07149e-06
6.66789e-07
7.11642e-07
1.90517e-07
1.13608e-07
-7.88099e-09
9.21408e-09
4.19966e-08
6.13441e-08
-5.28865e-08
-4.47792e-08
-3.61894e-08
1.38013e-07
5.68187e-08
1.81967e-08
1.63656e-07
2.06009e-07
1.06547e-08
-1.93458e-08
-3.85946e-08
4.07886e-07
3.57509e-07
3.38191e-07
-2.15135e-08
-2.05313e-08
-1.96697e-08
9.69052e-09
7.83068e-09
3.404e-10
3.53555e-10
-4.28551e-10
-4.28143e-10
-2.52227e-10
-2.5926e-10
-1.86235e-10
-1.85552e-10
-3.09546e-10
-3.04536e-10
-4.50821e-10
-4.13956e-10
-2.91341e-10
-2.96604e-10
8.01209e-11
7.70889e-11
-1.51608e-10
-1.54384e-10
-1.39613e-10
-1.34906e-10
-1.41267e-10
-1.37973e-10
-1.65608e-10
-1.71187e-10
-1.54944e-10
-1.50018e-10
-1.70225e-10
-1.77805e-10
-1.5857e-10
-1.73397e-10
-2.15787e-11
-1.43858e-11
4.8852e-11
7.48272e-11
-3.05404e-11
-3.27777e-11
-3.77687e-11
-5.89814e-12
3.30849e-12
2.41188e-11
2.85773e-10
2.62337e-10
3.70805e-08
4.03137e-08
3.1745e-08
2.93168e-08
4.29668e-09
4.45213e-09
5.09017e-09
5.34191e-09
1.23302e-09
1.93743e-09
9.4007e-10
5.26481e-10
-2.59532e-09
-2.12051e-09
1.66111e-08
1.54316e-08
-1.44153e-08
-1.79947e-08
2.22686e-11
3.26238e-10
-2.78602e-09
-3.45172e-09
-6.43242e-09
-5.48507e-09
-1.22927e-08
-1.39021e-08
-2.94222e-08
-3.25581e-08
-1.62775e-08
-1.45022e-08
-2.43665e-08
-2.22244e-08
-2.16968e-08
-1.9414e-08
9.78661e-09
9.55901e-09
5.84506e-07
6.70604e-07
7.00183e-07
4.12725e-07
3.70782e-07
7.88056e-07
7.77337e-07
4.12908e-07
-9.44173e-08
1.24672e-08
1.01204e-08
1.04769e-06
9.65222e-07
1.22349e-06
4.86574e-07
4.44475e-07
1.73215e-07
1.37133e-07
2.74986e-07
2.42144e-07
2.60683e-07
1.32658e-07
-3.86213e-08
-1.21581e-07
-1.33719e-07
-5.03907e-08
-7.56343e-08
-1.71708e-07
1.43194e-07
1.77366e-07
3.97422e-10
-7.86004e-09
3.93171e-07
2.6378e-07
4.47815e-07
5.25025e-07
4.08617e-07
9.37193e-07
1.14127e-06
8.86285e-07
9.17282e-07
8.69637e-07
7.61094e-07
1.35349e-06
1.35912e-06
1.64945e-06
1.69744e-06
8.10692e-07
8.31297e-07
1.07186e-06
1.07574e-06
3.72408e-07
3.4738e-07
-2.63352e-08
-3.06313e-08
-5.89739e-09
-1.15779e-08
-2.99417e-08
-3.39585e-08
-5.80772e-08
-6.42492e-08
-1.10504e-07
-1.03693e-07
-2.6527e-08
1.07141e-07
1.01537e-07
1.23466e-07
1.27029e-07
7.28016e-08
7.84806e-08
1.99171e-07
1.92814e-07
-9.42138e-09
-1.07204e-08
2.22029e-08
2.17261e-08
6.98595e-09
6.81753e-09
1.48434e-09
1.46294e-09
1.74105e-09
1.73863e-09
3.42037e-09
3.54326e-09
1.61498e-09
1.6285e-09
2.12321e-09
2.15245e-09
1.18996e-09
1.14831e-09
1.53573e-09
1.55643e-09
1.55796e-09
1.5474e-09
1.55332e-09
1.55123e-09
1.56785e-09
1.56483e-09
1.23545e-09
1.15974e-09
1.54556e-09
1.55106e-09
1.44247e-09
1.44157e-09
1.63538e-09
1.65723e-09
2.32302e-09
2.39581e-09
2.45847e-09
2.55128e-09
3.0232e-09
3.14847e-09
2.50761e-09
2.4341e-09
3.40898e-09
3.51015e-09
3.06663e-09
3.11738e-09
3.24111e-09
3.02406e-09
2.12409e-09
2.01175e-09
1.84008e-09
1.84093e-09
1.8096e-09
1.90773e-09
1.26996e-09
1.20835e-09
1.36958e-09
1.4404e-09
7.61749e-10
7.36966e-10
8.57436e-10
8.33933e-10
1.08866e-09
1.05966e-09
1.34747e-09
1.3667e-09
1.49578e-09
1.51895e-09
1.51558e-09
1.53994e-09
1.31897e-09
1.2881e-09
1.30768e-09
1.31522e-09
1.19151e-09
1.17519e-09
1.35418e-09
1.34882e-09
1.25876e-09
1.23694e-09
8.76324e-10
9.04573e-10
8.88631e-10
9.15584e-10
8.0542e-10
8.35305e-10
8.64074e-10
8.31591e-10
6.78902e-10
7.09067e-10
6.99002e-10
6.69254e-10
6.05668e-10
6.28963e-10
6.73817e-10
6.50099e-10
7.83819e-10
7.26473e-10
9.97374e-10
9.81599e-10
7.14127e-10
6.74862e-10
6.85585e-10
6.56689e-10
5.82058e-10
6.14947e-10
7.15376e-10
7.56198e-10
5.35831e-10
5.13195e-10
3.68071e-10
3.49239e-10
5.30111e-10
5.54867e-10
3.84968e-10
4.07368e-10
3.97244e-10
4.10316e-10
3.63939e-10
3.49903e-10
6.33892e-10
6.19905e-10
4.59619e-10
4.4183e-10
5.19748e-10
5.41457e-10
3.71172e-10
4.94852e-10
4.27202e-10
4.11544e-10
1.70462e-10
1.67213e-10
1.5116e-10
1.51354e-10
2.74328e-10
2.80034e-10
3.61529e-10
3.67029e-10
3.45275e-10
3.52704e-10
3.27834e-10
3.30384e-10
2.93491e-10
2.93644e-10
2.63763e-10
2.5987e-10
2.75267e-10
2.75341e-10
2.74738e-10
2.75718e-10
3.54131e-10
3.1611e-10
3.1283e-10
3.12576e-10
3.25137e-10
3.25939e-10
3.27585e-10
3.28645e-10
3.74181e-10
3.29125e-10
3.76272e-10
3.31051e-10
1.09275e-09
1.0965e-09
9.97846e-10
1.02305e-09
7.63659e-10
7.83199e-10
7.0333e-10
7.06463e-10
7.82303e-10
7.74554e-10
7.6607e-10
7.71165e-10
6.20828e-10
6.26705e-10
6.16036e-10
6.28644e-10
5.63361e-10
5.74805e-10
5.69527e-10
5.60113e-10
5.44223e-10
5.38523e-10
5.12151e-10
4.66166e-10
4.41406e-10
4.47593e-10
3.79893e-10
3.84636e-10
4.11783e-10
4.0811e-10
3.30236e-10
3.3393e-10
3.18485e-10
2.11218e-09
-5.82662e-10
-1.24445e-07
-1.30173e-07
5.09712e-07
4.45754e-07
-6.72707e-08
-9.64017e-08
1.59244e-07
1.06285e-07
2.08212e-08
8.26091e-08
1.72784e-07
2.06866e-07
2.15844e-07
2.1547e-07
5.14527e-08
1.0118e-07
2.18332e-07
2.75241e-07
-4.6313e-08
-4.19584e-08
1.81001e-08
2.11327e-08
4.59474e-08
6.55047e-08
1.24781e-07
1.10668e-07
3.02501e-07
3.41818e-07
6.35475e-07
6.36727e-07
6.50072e-07
6.7905e-07
9.82147e-07
1.08445e-06
6.34295e-07
5.96689e-07
1.06994e-06
1.0115e-06
2.1644e-07
1.51341e-07
2.95708e-08
6.76708e-09
-4.54999e-09
5.17755e-08
-2.96513e-08
-1.21277e-08
2.41388e-08
6.97255e-08