/*--------------------------------*- C++ -*----------------------------------*\
  =========                 |
  \\      /  F ield         | OpenFOAM: The Open Source CFD Toolbox
   \\    /   O peration     | Website:  https://openfoam.org
    \\  /    A nd           | Version:  7
     \\/     M anipulation  |
\*---------------------------------------------------------------------------*/
FoamFile
{
    version     2.0;
    format      ascii;
    class       volScalarField;
    location    "0.03";
    object      p;
}
// * * * * * * * * * * * * * * * * * * * * * * * * * * * * * * * * * * * * * //

dimensions      [0 2 -2 0 0 0 0];

internalField   nonuniform List<scalar> 
238806
(
6.91693e-07
6.86724e-07
-2.05702e-08
1.37562e-07
5.00571e-08
6.34149e-07
6.4244e-07
7.16607e-07
7.9018e-07
1.83037e-07
2.03538e-07
2.75872e-07
8.32144e-08
7.90245e-08
-6.32096e-08
-7.70326e-08
1.56879e-07
1.16404e-07
2.14969e-06
2.16653e-06
1.04067e-07
9.40367e-08
-6.29562e-08
-2.94117e-08
-2.52965e-09
1.20803e-07
6.31919e-08
1.16063e-07
4.09812e-09
-8.49676e-08
1.91827e-06
2.12724e-06
6.47086e-08
8.64698e-08
1.46852e-07
1.622e-07
4.41603e-10
3.79844e-10
1.61146e-07
2.85244e-07
2.29867e-07
1.61274e-08
2.3901e-06
2.62343e-06
1.93814e-06
1.91924e-06
-3.20485e-08
-1.60097e-08
1.08545e-07
1.30202e-07
2.84677e-07
2.95332e-07
9.10226e-08
8.62595e-08
-5.62257e-10
-5.96035e-10
1.94006e-07
9.00473e-08
1.82145e-07
2.58934e-07
2.02393e-07
3.55466e-07
2.32826e-07
2.96257e-07
3.37649e-07
1.73117e-06
1.73281e-06
8.96048e-07
8.07526e-07
4.61258e-07
4.12715e-07
7.91888e-08
6.0081e-08
1.26569e-07
1.04937e-07
2.18656e-07
2.04182e-07
1.46417e-07
1.61549e-07
5.67021e-09
5.57507e-09
6.42468e-08
9.28634e-08
1.07311e-06
1.12949e-06
4.16895e-07
3.76095e-07
6.79322e-08
-8.53029e-09
1.06762e-07
6.9986e-08
3.56476e-07
2.44e-07
1.99694e-06
1.94546e-06
2.8441e-07
3.12912e-07
1.68451e-07
1.32866e-07
8.61127e-09
1.70999e-06
9.03835e-07
8.54615e-07
7.65636e-07
7.68663e-07
4.62481e-08
3.97276e-08
1.10843e-07
9.35312e-08
8.3234e-08
6.19949e-08
2.11583e-07
2.34027e-07
2.65249e-07
2.55162e-07
8.6695e-08
9.48908e-08
2.67479e-10
4.16406e-10
1.49088e-10
-1.2787e-07
-1.22705e-07
8.93106e-07
8.45694e-07
7.03635e-07
7.12312e-07
-9.39271e-08
-1.13313e-07
3.87129e-08
4.37826e-08
2.96764e-07
3.29586e-08
8.60237e-08
2.54879e-09
1.62925e-07
3.0832e-07
1.83886e-06
2.05739e-06
-2.0671e-07
-3.16591e-08
-8.77378e-08
-3.51009e-08
2.06995e-07
1.27211e-06
1.02763e-06
1.14197e-06
1.08219e-06
7.64427e-07
8.06436e-07
5.44461e-07
5.09917e-07
3.51455e-07
3.31414e-07
3.69186e-08
2.79677e-08
8.95815e-08
7.73921e-08
7.61065e-08
5.89128e-08
9.57693e-08
8.69636e-08
1.98374e-07
1.86709e-07
2.95336e-07
2.85027e-07
1.4271e-07
1.57841e-07
6.08855e-09
6.19262e-09
4.42574e-10
3.81934e-10
5.80603e-08
8.26232e-08
-3.75923e-08
-2.55455e-08
-6.17448e-09
1.0006e-06
9.47237e-07
3.30919e-07
3.17741e-07
-8.10527e-08
-1.05577e-07
-2.53099e-08
1.10149e-07
2.79143e-08
8.12863e-08
1.04937e-06
9.65804e-07
2.21946e-06
2.4786e-06
2.37169e-06
2.61029e-06
1.02833e-06
8.67493e-07
1.65135e-07
2.7137e-08
1.72275e-07
-2.06558e-08
-3.69877e-08
2.87584e-08
-4.18825e-08
2.06277e-06
2.11397e-06
1.13941e-06
1.07975e-06
1.00757e-06
8.97644e-07
3.5355e-07
3.17634e-07
4.5622e-07
4.88105e-07
-4.75695e-08
-5.44129e-08
1.95589e-08
1.18365e-08
2.73026e-08
4.0873e-08
3.4127e-08
4.88611e-08
9.87442e-08
1.18291e-07
2.10489e-07
1.93008e-07
2.30775e-07
2.68023e-07
2.58382e-07
2.66085e-07
1.45628e-07
1.60957e-07
8.74359e-09
9.12118e-09
5.2388e-09
5.36864e-09
2.54888e-09
2.5736e-09
2.22213e-09
2.15253e-09
3.58447e-07
4.10969e-07
4.67477e-08
1.145e-07
-1.29321e-07
-1.42907e-07
9.44022e-09
9.95238e-09
7.93433e-07
7.50974e-07
3.88058e-07
4.04897e-07
3.28684e-07
3.01655e-07
1.76427e-07
1.8586e-07
3.70091e-08
4.14489e-08
9.41696e-08
1.55488e-07
1.90946e-06
2.2497e-06
2.12699e-06
2.40183e-06
1.92961e-06
2.1454e-06
2.13645e-07
2.15615e-07
8.61753e-07
9.5501e-07
2.32679e-07
2.57158e-07
6.74205e-09
-9.69926e-09
2.65825e-07
-3.23185e-08
2.80475e-08
2.05264e-07
1.54174e-07
1.87914e-06
1.81747e-06
1.43805e-06
1.36176e-06
9.63251e-07
1.01661e-06
6.0041e-07
6.40701e-07
6.04308e-07
6.08263e-07
4.71924e-07
4.57559e-07
-1.59414e-10
2.57981e-09
-2.72581e-08
-3.6151e-08
2.00835e-08
1.30573e-08
1.70363e-08
6.70418e-09
4.18763e-08
2.48317e-08
4.20136e-08
2.09715e-08
7.20422e-08
5.65305e-08
8.34091e-08
8.45407e-08
1.57889e-07
1.39007e-07
2.14918e-07
2.0797e-07
2.41311e-07
2.2221e-07
8.93922e-08
9.12828e-08
1.29336e-07
1.32057e-07
1.22992e-07
1.12256e-07
8.40561e-09
8.53352e-09
7.25366e-09
7.4975e-09
4.53982e-09
4.39476e-09
5.42407e-09
5.52126e-09
2.0103e-09
1.91737e-09
2.17533e-09
2.24594e-09
2.72543e-10
5.28352e-08
7.83559e-08
-1.04463e-07
-1.00351e-07
-1.12693e-09
-1.09081e-09
5.31424e-08
5.64448e-08
-1.99521e-08
-1.16046e-08
7.48708e-07
7.04401e-07
7.77265e-07
7.73731e-07
3.49821e-07
3.65166e-07
2.90341e-07
2.78262e-07
-1.87691e-07
-2.46349e-08
-7.49344e-08
-1.82391e-08
4.83298e-07
6.19281e-07
1.36982e-06
2.03918e-06
1.50112e-06
1.25856e-06
1.19719e-06
2.16772e-06
1.95553e-06
2.56215e-07
2.58894e-07
4.70247e-07
5.76535e-07
6.51609e-07
8.75275e-07
-1.7196e-07
1.31288e-08
-3.96299e-08
3.29447e-07
3.30996e-07
4.72369e-08
1.08771e-07
2.27079e-07
6.06903e-09
2.5616e-07
8.80269e-08
7.8716e-07
6.97911e-07
1.85575e-06
1.9825e-06
1.38669e-06
1.37721e-06
1.42645e-06
1.276e-06
1.25928e-06
1.0976e-06
2.13225e-07
2.0659e-07
2.81924e-07
3.13923e-07
6.81292e-07
6.7124e-07
7.45129e-07
7.17606e-07
4.81914e-07
4.80141e-07
4.36627e-07
4.0965e-07
3.07382e-07
2.78838e-07
-4.94359e-08
-4.26245e-08
5.6016e-08
6.29259e-08
2.01263e-08
1.38081e-08
1.85831e-08
9.0142e-09
1.08591e-08
-3.0673e-09
-1.31646e-09
-1.94056e-08
6.86037e-08
5.46749e-08
9.12441e-08
9.5354e-08
1.45222e-07
1.28726e-07
2.30225e-07
2.38642e-07
1.56295e-07
1.59291e-07
1.211e-07
1.33029e-07
1.17548e-07
1.20042e-07
1.34827e-07
9.5803e-09
9.71813e-09
8.92427e-09
9.31004e-09
6.25378e-09
6.0472e-09
6.47979e-09
6.69028e-09
5.32072e-09
5.1841e-09
3.87206e-09
3.9969e-09
2.0571e-09
1.9826e-09
1.06276e-09
1.0448e-09
4.77926e-09
4.9015e-09
3.90503e-08
1.8295e-07
4.24817e-08
-3.07078e-08
-2.53226e-08
-2.14662e-07
-1.23731e-07
-1.59616e-07
-1.27729e-07
-5.69988e-10
-6.1003e-10
1.88199e-08
1.87106e-08
-2.10126e-08
-1.79817e-08
-1.74038e-08
-2.00467e-08
-9.49079e-08
-1.12427e-07
7.47161e-07
8.95981e-07
6.78683e-07
6.64571e-07
4.61932e-07
4.69481e-07
3.65459e-07
2.04968e-07
1.70452e-07
2.33891e-07
3.31704e-08
-7.71793e-08
1.75967e-08
-3.31645e-08
1.25311e-06
2.15743e-06
1.79267e-06
1.77576e-06
1.69632e-06
1.68007e-06
1.63812e-06
2.33627e-06
2.57885e-06
1.79167e-07
1.80662e-07
2.504e-07
2.2889e-07
3.08852e-07
2.81189e-07
9.00252e-07
7.99734e-07
1.99024e-07
2.21278e-07
1.42747e-07
4.49387e-08
5.38709e-08
-3.19889e-08
-2.11508e-07
-6.03986e-08
-1.11935e-07
-5.66593e-08
1.0519e-08
1.2084e-07
5.72669e-07
6.16551e-07
1.22618e-06
1.18414e-06
1.66727e-06
1.60206e-06
1.35274e-06
1.51645e-06
1.80591e-06
1.72278e-06
1.21379e-06
1.28058e-06
2.39693e-07
2.36861e-07
3.89738e-07
3.48814e-07
5.04838e-07
5.71244e-07
5.38621e-07
5.41239e-07
6.78179e-07
6.17452e-07
3.82485e-07
3.83014e-07
4.09877e-07
4.2195e-07
3.00088e-07
3.17119e-07
-2.57798e-08
-3.03599e-08
-1.05327e-07
-8.12337e-08
6.79865e-08
7.76476e-08
4.17053e-08
4.89564e-08
2.72095e-08
3.44728e-08
2.82613e-08
3.81713e-08
1.92629e-08
1.07494e-08
1.40684e-08
1.23052e-09
3.50456e-09
-1.263e-08
8.26028e-08
9.625e-08
6.49473e-08
5.25483e-08
1.17084e-07
1.19794e-07
1.03971e-07
1.11444e-07
1.33297e-07
1.18788e-07
1.65651e-07
1.88972e-07
1.59022e-07
1.54764e-07
2.70443e-07
2.74098e-07
1.85502e-07
1.91985e-07
1.55543e-07
1.47014e-07
1.33287e-07
1.21217e-07
1.02751e-07
9.39757e-08
8.71645e-09
8.55957e-09
8.43958e-09
8.31523e-09
7.42248e-09
7.66035e-09
5.91205e-09
6.01797e-09
4.534e-09
4.68249e-09
6.97412e-09
6.82733e-09
4.16543e-09
4.14488e-09
2.68291e-09
2.6037e-09
2.07875e-09
2.15358e-09
6.85626e-10
6.55377e-10
4.36455e-10
3.71262e-10
3.40013e-09
3.29416e-09
2.17136e-09
2.15955e-09
-6.06355e-08
-2.59934e-08
3.65882e-07
2.13626e-07
-5.06545e-08
-4.85454e-08
3.24851e-08
9.81717e-09
-1.91711e-08
5.81309e-09
-1.07205e-07
-9.64496e-08
-5.54486e-10
-5.94201e-10
7.82479e-11
1.22843e-10
1.08694e-08
1.0406e-08
9.27498e-09
9.82867e-09
-2.03693e-09
-3.84388e-09
-1.8028e-08
-2.70829e-08
-5.5622e-09
-2.63056e-08
6.22681e-07
5.13456e-07
8.74165e-07
9.98838e-07
1.03204e-06
1.1306e-06
6.19696e-07
6.89922e-07
5.12351e-07
5.22459e-07
3.42147e-07
3.73689e-07
2.72744e-07
2.69644e-07
-7.04676e-08
-9.61278e-08
1.31839e-07
1.22648e-07
7.30749e-08
4.68527e-08
1.55581e-08
2.98266e-07
2.09329e-07
1.21112e-06
1.13725e-06
1.93827e-06
1.54545e-06
1.511e-06
1.4597e-06
2.28381e-06
2.52941e-06
1.64408e-07
1.65709e-07
2.9005e-07
2.65185e-07
2.33865e-07
2.36103e-07
7.04081e-07
7.74048e-07
9.97207e-07
1.13692e-06
3.12979e-08
8.05679e-08
-9.20576e-08
6.07111e-08
1.22787e-07
1.18933e-07
2.34538e-07
8.2072e-09
3.34622e-07
3.15406e-07
2.69127e-07
8.91749e-08
3.33121e-08
-6.88195e-08
3.9855e-08
7.01251e-07
6.4261e-07
1.7261e-06
1.58514e-06
1.54297e-06
1.55108e-06
1.61343e-06
1.43957e-06
2.8431e-07
1.98406e-07
2.7846e-07
2.87113e-07
2.49587e-07
5.01016e-07
5.5783e-07
5.91852e-07
5.24623e-07
6.51434e-07
7.56315e-07
6.41879e-07
6.64831e-07
5.20968e-07
5.52948e-07
3.2948e-07
3.3775e-07
4.28566e-07
4.29641e-07
3.78559e-07
3.41047e-07
-5.27058e-09
-8.81515e-09
-3.06733e-08
-2.55254e-08
-7.11755e-08
-8.11794e-08
-4.19121e-08
-4.95413e-08
5.01217e-08
6.13629e-08
6.37235e-08
7.2329e-08
4.37113e-08
5.18039e-08
3.31691e-08
2.65868e-08
2.78058e-08
3.88937e-08
1.60041e-08
4.45925e-09
8.31852e-09
-7.13102e-09
8.77737e-08
1.03228e-07
9.92324e-08
1.03799e-07
8.83353e-08
8.05309e-08
1.7439e-07
1.60754e-07
1.72888e-07
1.51215e-07
1.80156e-07
1.70336e-07
2.20836e-07
2.1939e-07
2.45234e-07
1.8669e-07
1.86857e-07
1.71475e-07
1.95747e-07
1.10517e-07
1.10552e-07
1.31367e-07
1.44632e-07
9.93593e-08
1.08902e-07
3.6042e-08
3.77681e-08
8.68844e-09
8.65685e-09
7.8808e-09
7.74902e-09
6.55991e-09
6.47404e-09
7.46837e-09
7.1865e-09
6.23206e-09
6.44418e-09
6.61275e-09
6.8298e-09
5.28669e-09
5.12678e-09
5.17288e-09
5.25311e-09
3.72026e-09
3.601e-09
4.30721e-09
4.43068e-09
3.93835e-09
4.06443e-09
2.9027e-09
2.98644e-09
2.22178e-09
2.14106e-09
1.84769e-09
1.90289e-09
9.74793e-10
1.02579e-09
5.89386e-10
5.58163e-10
4.38531e-10
3.75676e-10
4.34163e-10
3.61571e-10
3.33102e-09
3.29704e-09
4.03145e-10
2.61423e-10
2.5286e-10
-1.24916e-08
-1.59402e-08
4.05033e-07
2.47488e-07
4.3517e-07
4.43349e-07
3.92224e-07
4.61792e-07
6.72934e-07
-5.49644e-08
-4.90603e-08
2.38093e-08
4.09209e-08
1.24345e-08
3.15717e-08
-5.42149e-08
-8.14237e-08
-1.45727e-08
-2.81761e-08
-4.66601e-09
-5.45883e-09
2.29293e-10
2.24132e-10
-5.1104e-10
-5.48178e-10
-4.69438e-10
-4.97292e-10
1.67844e-13
1.48682e-10
2.32882e-08
2.42039e-08
1.89875e-08
1.89312e-08
1.19052e-08
1.22046e-08
1.03264e-08
1.07551e-08
-6.62885e-09
-4.60856e-09
-2.28514e-08
-2.9476e-09
-2.6656e-08
-2.52959e-08
-1.8876e-08
3.43925e-07
3.99504e-07
7.57738e-07
5.51086e-07
8.59669e-07
1.0141e-06
7.79255e-07
6.92208e-07
7.26645e-07
7.60232e-07
5.06644e-07
5.34735e-07
3.4486e-07
3.40079e-07
4.19553e-07
4.65527e-07
2.21761e-07
2.29497e-07
-3.97976e-08
-4.63662e-08
1.57834e-07
1.51151e-07
4.87023e-08
1.11528e-07
2.79333e-07
1.79972e-07
1.30487e-06
1.38895e-06
1.17027e-06
1.15308e-06
1.43556e-06
1.26781e-06
2.10831e-06
1.88794e-06
1.95573e-07
1.97244e-07
2.42297e-07
2.2182e-07
3.65468e-07
4.64428e-07
7.1342e-07
6.47841e-07
1.05961e-06
1.16271e-06
1.63501e-07
1.49437e-07
-2.89322e-08
-7.31304e-08
-5.47171e-08
-1.25904e-07
9.4649e-08
8.70904e-08
4.39239e-08
2.43291e-08
-5.58118e-08
-4.60859e-08
2.53506e-07
2.16353e-07
-2.24145e-08
2.9762e-08
1.4287e-06
1.7115e-06
1.31245e-06
1.26023e-06
1.50063e-06
1.33189e-06
1.53324e-06
1.61404e-06
3.38346e-07
3.30751e-07
3.2648e-07
4.4025e-07
4.92981e-07
6.04122e-07
5.36661e-07
7.70116e-07
7.62625e-07
5.89063e-07
6.12899e-07
3.42133e-07
3.42487e-07
3.69366e-07
3.92293e-07
-2.59517e-08
-2.1663e-08
-3.55673e-08
-4.11607e-08
-7.79385e-08
-6.60613e-08
-3.57342e-08
-2.89318e-08
-4.56927e-08
7.2544e-08
8.34299e-08
5.87197e-08
5.25885e-08
2.74987e-08
3.56155e-08
4.01775e-08
2.79082e-08
2.17494e-08
4.1187e-08
1.28294e-07
1.31428e-07
7.56855e-08
6.9487e-08
1.02184e-07
9.55713e-08
1.32872e-07
1.23345e-07
1.75612e-07
1.9104e-07
1.6359e-07
1.55276e-07
1.75802e-07
1.78437e-07
3.02955e-07
3.06511e-07
3.06056e-07
3.02109e-07
2.22605e-07
2.08287e-07
2.05581e-07
1.00942e-07
1.01118e-07
1.38346e-07
1.53329e-07
1.03816e-07
1.13925e-07
8.61113e-09
8.58511e-09
8.53326e-09
8.50233e-09
7.78936e-09
7.87581e-09
8.18551e-09
8.27653e-09
9.44247e-09
9.70757e-09
7.40091e-09
7.68917e-09
6.41033e-09
6.62411e-09
5.97416e-09
5.7984e-09
4.83777e-09
4.69093e-09
6.67474e-09
6.7511e-09
5.0388e-09
5.11836e-09
4.10066e-09
3.98045e-09
3.12966e-09
3.04101e-09
4.35428e-09
4.44126e-09
3.58176e-09
3.47858e-09
4.15348e-09
4.28166e-09
3.75238e-09
3.87665e-09
2.50662e-09
2.43066e-09
2.72518e-09
2.79958e-09
2.23566e-09
2.31409e-09
2.34348e-09
2.39099e-09
9.90678e-10
1.00781e-09
5.67533e-10
5.99938e-10
4.40248e-10
3.77739e-10
6.41104e-10
6.83902e-10
2.36149e-09
2.28626e-09
3.31526e-09
3.41714e-09
2.18854e-09
2.18195e-09
1.70419e-09
1.6823e-09
2.70444e-07
2.30658e-07
2.08698e-07
-2.59569e-08
-3.93342e-08
1.78126e-07
6.73762e-08
1.28425e-07
3.85426e-08
1.22377e-09
7.9759e-10
3.47143e-07
3.14995e-07
-6.03288e-08
-5.99799e-08
-4.18232e-08
-3.76495e-08
3.20437e-08
6.60713e-09
-2.32852e-07
-5.9278e-08
-1.09171e-07
-7.90047e-08
-6.77372e-09
-6.75785e-09
-6.28864e-09
-6.06215e-09
-5.71969e-10
-5.62743e-10
-6.60981e-10
-6.9892e-10
-5.31681e-10
-4.95151e-10
-5.86235e-10
-6.24394e-10
-1.23953e-10
3.73984e-11
1.76321e-10
1.47277e-10
5.98116e-08
6.40394e-08
1.14867e-08
1.17315e-08
1.49231e-08
1.58589e-08
4.89296e-08
5.20098e-08
1.62909e-08
1.61597e-08
8.82823e-09
8.15387e-09
-4.35386e-09
-2.54594e-09
-9.88602e-09
-1.1032e-08
-1.60169e-08
-1.1619e-08
-1.7511e-08
-8.54304e-08
7.89809e-07
6.93678e-07
1.14858e-06
1.01664e-06
6.00239e-07
5.72519e-07
4.99146e-07
5.5572e-07
3.75708e-07
3.8113e-07
2.83022e-07
2.5017e-07
2.54965e-07
2.97293e-07
-8.62592e-08
-4.45663e-08
-4.05616e-08
-3.06934e-08
-1.74614e-08
1.81021e-07
1.57589e-07
5.28668e-08
6.11422e-08
7.20813e-07
4.32315e-07
5.67075e-07
4.22969e-07
9.00548e-07
7.90032e-07
1.36649e-06
1.74592e-06
1.55183e-06
1.29909e-06
1.26244e-06
2.21299e-07
2.04473e-07
1.86384e-07
1.91823e-07
2.74493e-07
3.00888e-07
6.37345e-07
5.36727e-07
4.49218e-07
3.35156e-07
4.31405e-07
2.36495e-07
1.52087e-07
1.00808e-07
1.28207e-07
3.93156e-08
1.0183e-07
-6.6041e-08
1.08381e-07
2.00388e-07
1.79821e-07
1.38677e-07
1.04518e-07
6.40119e-08
6.08976e-08
-3.60025e-08
-3.50083e-08
1.45313e-07
6.01779e-07
5.08211e-07
1.08941e-06
1.09757e-06
1.39857e-06
1.46997e-06
1.23764e-06
1.23294e-06
4.141e-07
4.25e-07
3.26781e-07
3.2143e-07
4.32934e-07
4.92642e-07
5.53687e-07
6.05072e-07
5.12076e-07
5.28916e-07
6.78994e-07
6.84399e-07
3.7694e-07
3.66679e-07
-1.53933e-08
-1.18461e-08
-3.62529e-08
-2.97027e-08
-3.62917e-08
-3.08804e-08
-9.23972e-08
-1.02057e-07
-2.20399e-08
-1.61979e-08
-5.85455e-08
-5.58176e-08
5.81066e-08
4.81291e-08
5.97363e-08
6.74893e-08
2.57618e-08
4.11153e-08
9.23884e-08
9.30111e-08
7.95462e-08
7.49093e-08
1.13419e-07
1.21865e-07
1.22569e-07
1.09887e-07
1.70531e-07
1.75503e-07
1.48767e-07
1.41447e-07
1.97764e-07
1.96999e-07
2.74682e-07
2.71835e-07
2.41711e-07
2.45685e-07
2.45152e-07
2.28766e-07
9.98734e-08
9.77995e-08
9.22524e-08
9.23616e-08
1.19357e-07
1.25266e-07
8.74435e-09
8.77191e-09
7.65084e-09
7.73616e-09
8.01279e-09
8.14518e-09
8.96797e-09
9.06761e-09
7.30978e-09
7.25006e-09
9.76619e-09
9.74669e-09
8.00204e-09
7.773e-09
6.92714e-09
6.69155e-09
6.6646e-09
6.46779e-09
6.74827e-09
6.96639e-09
5.28622e-09
5.45295e-09
5.08462e-09
4.97631e-09
6.89698e-09
6.81795e-09
5.32832e-09
5.18819e-09
3.854e-09
3.72568e-09
3.4796e-09
3.35799e-09
3.83774e-09
3.98537e-09
4.09033e-09
4.2052e-09
4.30954e-09
4.24032e-09
3.48201e-09
3.37612e-09
4.25334e-09
4.37969e-09
4.1926e-09
4.09245e-09
2.69497e-09
2.60454e-09
2.51965e-09
2.44575e-09
2.83853e-09
2.92131e-09
2.81015e-09
2.88795e-09
2.32229e-09
2.40043e-09
3.02471e-09
3.11673e-09
2.7723e-09
2.69124e-09
3.8546e-10
3.89237e-10
7.53028e-10
7.56769e-10
6.35084e-10
6.22406e-10
4.58973e-10
4.32352e-10
4.37924e-10
3.73549e-10
5.18729e-10
4.85293e-10
2.36438e-09
2.28953e-09
3.32509e-09
3.29368e-09
2.69741e-09
2.68186e-09
2.04242e-09
2.04986e-09
2.08917e-09
2.10087e-09
1.30767e-09
1.29171e-09
3.42001e-10
3.34909e-10
1.6135e-07
1.90983e-07
3.68009e-09
1.25646e-08
1.50645e-07
1.68484e-07
1.94485e-08
-1.87668e-08
1.09256e-07
2.06533e-08
1.52725e-07
5.98401e-08
6.38999e-08
9.81192e-07
1.12724e-06
-7.43217e-08
-6.03044e-08
-9.17669e-08
-3.64886e-08
-4.27682e-08
-1.44378e-08
-3.38888e-08
1.8931e-07
-1.46122e-09
1.17031e-07
-1.17793e-08
-2.31264e-08
-7.29485e-08
-6.7381e-08
-3.05379e-08
-2.56277e-08
-5.71526e-09
-4.95435e-09
-6.52124e-10
-6.74429e-10
-4.12513e-10
-3.78501e-10
9.13258e-10
9.71246e-10
-2.64469e-10
-3.09551e-10
-5.25953e-10
-4.91078e-10
-7.52702e-11
-2.99395e-11
1.43048e-10
1.70261e-10
4.36676e-08
4.63403e-08
5.03147e-08
5.35291e-08
1.19564e-08
1.17912e-08
1.093e-08
1.08455e-08
1.03528e-08
9.64591e-09
9.94529e-09
9.57802e-09
1.60079e-08
1.57911e-08
1.14904e-08
1.17958e-08
6.29766e-09
7.12175e-09
-2.96544e-09
-1.27004e-09
-5.92129e-09
-8.13064e-09
-2.00666e-08
-2.25802e-08
4.98882e-07
4.64576e-07
5.53802e-07
4.64912e-07
1.03663e-06
1.17456e-06
8.44979e-07
9.38849e-07
4.79568e-07
4.52917e-07
4.16284e-07
4.22394e-07
3.38244e-07
3.72093e-07
3.01683e-07
3.35757e-07
-2.86579e-08
8.0564e-09
4.58529e-08
8.64688e-08
1.32094e-07
1.93709e-07
1.88701e-07
8.72381e-08
9.0887e-08
4.27923e-07
3.78181e-07
1.19728e-06
1.03645e-06
1.50307e-06
1.71726e-06
1.57295e-07
1.61519e-07
2.09332e-07
2.03132e-07
1.08173e-06
1.19111e-06
5.76546e-07
6.47166e-07
8.55307e-07
7.19206e-07
1.11403e-07
1.15384e-07
2.73809e-08
1.93812e-07
1.45857e-07
2.97048e-07
2.38758e-07
1.25311e-07
5.13429e-08
1.57616e-07
1.60131e-07
-1.33767e-08
-3.77946e-08
-7.49923e-08
-8.46383e-08
1.8791e-07
2.19301e-07
1.14681e-07
8.88498e-08
1.09778e-07
2.99352e-08
-2.82021e-08
1.46765e-08
-8.63285e-09
-4.51259e-09
1.24082e-06
8.88204e-07
9.79469e-07
8.10493e-07
1.2223e-06
1.23392e-06
1.8757e-06
2.14905e-06
1.83377e-06
9.7753e-07
9.79254e-07
1.21792e-06
1.18743e-06
4.6536e-07
4.77088e-07
3.12858e-07
3.45534e-07
3.54948e-07
3.91116e-07
5.36046e-07
4.75959e-07
5.92257e-07
5.72202e-07
-9.26518e-09
-6.19744e-09
-1.77556e-08
-2.15906e-08
-2.41683e-08
-1.94469e-08
-6.13044e-08
-5.42477e-08
-8.00341e-08
-1.11237e-07
-8.8924e-08
-9.58951e-08
-9.0272e-08
-5.3849e-08
-6.89767e-08
-3.99782e-08
5.48906e-08
4.58921e-08
9.94195e-08
1.00749e-07
8.12733e-08
8.6309e-08
8.18728e-08
7.48744e-08
1.34686e-07
1.45441e-07
1.12731e-07
1.01501e-07
1.8825e-07
1.94065e-07
1.98836e-07
1.97704e-07
2.46442e-07
2.4415e-07
2.70023e-07
2.5195e-07
1.09405e-07
1.07108e-07
9.0686e-09
8.80907e-09
7.77095e-09
7.68439e-09
6.79811e-09
6.65802e-09
7.79948e-09
7.6666e-09
8.34737e-09
8.22481e-09
8.98457e-09
8.86275e-09
5.91456e-09
5.99948e-09
7.78908e-09
7.58295e-09
9.0746e-09
9.16071e-09
8.126e-09
8.3495e-09
7.59482e-09
7.88695e-09
6.74441e-09
6.95983e-09
6.89181e-09
7.13496e-09
6.84544e-09
6.86322e-09
7.0828e-09
6.53802e-09
5.85263e-09
5.67322e-09
5.00199e-09
4.84575e-09
3.94091e-09
3.83971e-09
4.98096e-09
5.10804e-09
6.19067e-09
6.24253e-09
6.22544e-09
6.14508e-09
6.1083e-09
6.02471e-09
5.61619e-09
5.76303e-09
4.27083e-09
4.37621e-09
3.60323e-09
3.4802e-09
3.12411e-09
3.0078e-09
3.60018e-09
3.50613e-09
4.17393e-09
3.92783e-09
4.55427e-09
4.46721e-09
3.90044e-09
3.7797e-09
3.96436e-09
3.83804e-09
3.00758e-09
2.89656e-09
2.54132e-09
2.62825e-09
2.83224e-09
2.75519e-09
2.64583e-09
2.7289e-09
2.37038e-09
2.29815e-09
2.10032e-09
2.16946e-09
2.93839e-09
2.85913e-09
3.06065e-09
3.14613e-09
2.53766e-09
2.60834e-09
2.86256e-09
1.16607e-09
1.12796e-09
7.68793e-10
8.17443e-10
9.39683e-10
9.85079e-10
5.86095e-10
6.78511e-10
5.88381e-10
6.22015e-10
5.32721e-10
5.59184e-10
4.36481e-10
4.65361e-10
4.18216e-10
4.16413e-10
5.00194e-10
5.39912e-10
4.35033e-10
3.64347e-10
4.80319e-09
4.92609e-09
2.83321e-09
2.83346e-09
2.3997e-09
2.40133e-09
2.43694e-09
2.36457e-09
1.95425e-09
1.96471e-09
2.11161e-09
2.11917e-09
1.48534e-09
1.47822e-09
8.68361e-10
8.72072e-10
2.21424e-10
3.32262e-10
-6.91031e-08
-8.16552e-08
2.83132e-08
3.70821e-08
-3.58679e-08
4.25942e-08
4.1284e-08
2.5678e-08
-9.90905e-09
8.07512e-08
-2.01135e-08
2.83919e-07
-5.39144e-09
-4.72122e-09
1.32096e-07
1.2402e-07
8.58319e-07
8.73126e-07
2.77098e-07
3.14313e-07
-6.68654e-08
-6.58404e-08
4.38521e-08
5.38985e-08
-2.08329e-08
-4.94938e-09
1.66598e-08
7.32337e-08
1.35794e-07
3.57409e-08
-2.25196e-08
-5.616e-08
-7.32023e-08
-1.85736e-08
-4.33154e-08
-9.68631e-08
-1.46164e-08
-1.42562e-08
-9.05253e-09
-8.97941e-09
1.14596e-09
2.63623e-10
-1.57217e-09
-1.56628e-09
-6.31268e-10
-6.47182e-10
-4.3933e-10
-4.02942e-10
9.11015e-10
9.41297e-10
-1.82091e-10
-1.24759e-10
-3.09215e-10
-2.68234e-10
-6.1235e-10
-6.49941e-10
-5.14802e-10
-5.45528e-10
-1.75684e-10
-2.05787e-10
5.74981e-11
1.02643e-10
1.59677e-10
1.36913e-10
2.94236e-10
2.93474e-10
6.26636e-08
6.70389e-08
5.67609e-08
6.05399e-08
1.54974e-08
1.51722e-08
1.66225e-08
1.61494e-08
1.28883e-08
8.22852e-09
9.998e-09
9.0824e-09
9.47576e-09
3.94761e-08
3.74691e-08
1.00132e-08
1.06222e-08
1.24875e-08
1.26974e-08
7.69788e-09
8.38355e-09
3.64734e-09
2.44388e-09
-7.13422e-09
-4.83085e-09
-5.5488e-09
-3.66415e-09
-1.17534e-08
-9.82616e-09
-9.55075e-08
-1.08009e-07
5.31636e-07
5.13867e-07
5.14198e-07
4.25811e-07
9.23945e-07
9.20136e-07
1.03452e-06
1.15009e-06
4.31287e-07
4.06828e-07
5.69605e-07
5.77011e-07
3.15812e-07
3.11726e-07
-9.82965e-08
-1.12653e-07
-2.47204e-08
1.69428e-07
1.49013e-06
1.57456e-06
1.75899e-07
1.71143e-07
1.29705e-06
5.85982e-07
5.32366e-07
8.03656e-07
5.99567e-07
6.17563e-08
8.59022e-08
1.62661e-07
3.39521e-07
2.70364e-07
2.3696e-07
8.79927e-08
3.66339e-08
1.68914e-08
-7.94155e-08
-9.98254e-08
-1.14444e-07
1.94154e-07
2.42968e-07
8.85535e-08
8.64087e-08
3.30377e-08
5.96664e-08
-1.07165e-08
5.91413e-07
4.81774e-07
4.23752e-07
7.63008e-07
7.7443e-07
8.21456e-07
8.70439e-07
1.01011e-06
8.80849e-07
1.54372e-06
1.54681e-06
1.90707e-06
1.86796e-06
8.67282e-07
8.64826e-07
1.05706e-06
1.08429e-06
4.20585e-07
4.46343e-07
3.66926e-07
3.78115e-07
4.44965e-07
3.99382e-07
-6.7303e-09
-2.98983e-09
4.42344e-09
6.30757e-09
-3.66177e-09
-8.77346e-09
-1.3462e-08
-3.67118e-08
-4.35157e-08
-5.74142e-08
-6.24129e-08
-1.14192e-07
-1.09864e-07
-7.99633e-08
-2.24288e-08
-3.35447e-08
-5.65436e-08
1.29338e-07
1.35695e-07
1.07539e-07
1.09686e-07
6.99907e-08
6.45088e-08
1.47034e-07
1.59198e-07
1.7949e-07
1.7858e-07
2.30479e-07
2.38533e-07
9.27235e-09
9.20008e-09
1.39766e-08
1.35398e-08
6.7102e-09
6.8738e-09
1.23495e-08
1.26304e-08
9.62899e-09
9.4587e-09
7.47848e-09
7.39756e-09
8.17667e-09
8.05507e-09
8.05717e-09
7.92553e-09
8.09849e-09
8.99026e-09
9.07927e-09
6.31137e-09
6.22733e-09
6.23782e-09
6.08619e-09
8.35247e-09
8.49942e-09
9.39667e-09
9.65293e-09
9.36742e-09
9.42979e-09
8.70064e-09
8.86099e-09
8.33503e-09
8.68931e-09
8.20572e-09
7.01969e-09
7.18644e-09
7.07852e-09
7.32575e-09
6.95867e-09
7.17417e-09
6.27603e-09
6.40507e-09
4.94154e-09
5.09699e-09
4.99511e-09
5.15725e-09
4.35304e-09
4.24832e-09
5.05423e-09
4.92948e-09
5.8964e-09
5.76031e-09
6.13814e-09
7.33324e-09
7.25142e-09
5.09097e-09
4.95803e-09
4.99595e-09
5.09291e-09
5.56522e-09
5.6518e-09
3.98355e-09
3.85532e-09
4.449e-09
4.33436e-09
3.60341e-09
3.72861e-09
3.24117e-09
3.12318e-09
3.24274e-09
3.57382e-09
3.67263e-09
4.01074e-09
3.89813e-09
4.33806e-09
4.21359e-09
3.68496e-09
3.78522e-09
4.02684e-09
4.12638e-09
3.47483e-09
3.59354e-09
2.79889e-09
2.70074e-09
2.79523e-09
2.58795e-09
2.51352e-09
2.99849e-09
3.08582e-09
2.81846e-09
2.39266e-09
2.46261e-09
2.26363e-09
2.33451e-09
2.24398e-09
4.12028e-09
4.06305e-09
3.13972e-09
3.22757e-09
2.86881e-09
2.96385e-09
2.68766e-09
2.77603e-09
1.85319e-09
1.79946e-09
1.13329e-09
1.15226e-09
8.41509e-10
6.62338e-10
6.22848e-10
9.57433e-10
1.00655e-09
7.39657e-10
7.14445e-10
6.69898e-10
7.03404e-10
6.62846e-10
6.49362e-10
5.42442e-10
5.68365e-10
4.4169e-10
4.72086e-10
4.13691e-10
4.12135e-10
6.17461e-10
5.84852e-10
4.92377e-10
5.29689e-10
4.77495e-10
4.33897e-10
4.23087e-09
4.11738e-09
3.47964e-09
3.38463e-09
2.73506e-09
2.74134e-09
2.98173e-09
2.9914e-09
3.23564e-09
3.31565e-09
2.60506e-09
2.62338e-09
2.35821e-09
2.34117e-09
2.06418e-09
2.13753e-09
1.97392e-09
1.98092e-09
1.7663e-09
1.74341e-09
1.46946e-09
1.45315e-09
3.37343e-10
3.34815e-10
2.05285e-10
3.99417e-10
3.48994e-10
3.31493e-09
3.29954e-09
6.2976e-07
5.55792e-07
4.55518e-08
1.56338e-07
1.06933e-07
4.74094e-08
6.62442e-09
1.05212e-07
1.43818e-07
3.0934e-08
-2.21629e-08
-1.82425e-07
7.29592e-10
3.53399e-10
7.24562e-08
6.77808e-08
3.23378e-07
2.85461e-07
7.18016e-07
7.24208e-07
9.78239e-07
1.08216e-06
6.7752e-07
7.2192e-07
2.03368e-07
1.27153e-07
-8.57689e-09
8.97315e-09
4.32097e-08
6.24943e-08
-5.06251e-08
-4.29917e-08
-3.49615e-08
1.4581e-07
6.68838e-08
2.55026e-08
1.74299e-07
2.17238e-07
2.10636e-08
-1.03672e-08
-3.08366e-08
3.81836e-07
3.27142e-07
3.09173e-07
-3.15353e-08
-3.09627e-08
-3.05205e-08
-2.29634e-09
-3.62679e-09
-3.78474e-10
-4.89475e-10
-3.30647e-09
-3.27822e-09
-1.02257e-09
-1.05064e-09
-3.60942e-10
-3.74034e-10
-6.1003e-10
-6.27817e-10
-4.65324e-10
-4.27307e-10
-4.2847e-10
-4.15894e-10
8.85438e-10
8.56722e-10
-6.15705e-10
-6.61138e-10
-3.03068e-10
-2.62397e-10
-3.62009e-10
-3.25291e-10
-6.18561e-10
-6.58951e-10
-4.22425e-10
-3.88781e-10
-4.75676e-10
-5.09e-10
-1.85481e-10
-2.07137e-10
2.38334e-11
3.78521e-11
1.17482e-10
1.52165e-10
8.33697e-11
6.39766e-11
6.271e-11
8.98657e-11
6.6539e-11
8.85804e-11
3.78155e-10
3.32174e-10
5.52354e-08
5.884e-08
5.02994e-08
4.74405e-08
1.57054e-08
1.60768e-08
1.59181e-08
1.63651e-08
1.40382e-08
1.47898e-08
1.25625e-08
1.21293e-08
9.99845e-09
1.05165e-08
3.10958e-08
2.96205e-08
2.30971e-09
-8.72343e-10
1.37792e-08
1.38573e-08
1.10739e-08
1.06169e-08
6.88644e-09
7.65678e-09
1.0914e-09
-3.85043e-10
-1.41964e-08
-1.73256e-08
-1.45599e-09
1.47976e-10
-9.61669e-09
-7.63525e-09
-7.50418e-09
-5.3707e-09
2.89051e-08
2.82483e-08
6.27403e-07
7.1113e-07
7.39983e-07
4.53973e-07
4.11113e-07
8.29109e-07
8.18659e-07
4.49563e-07
-6.84198e-08
3.2277e-08
3.06075e-08
1.08931e-06
1.008e-06
1.26532e-06
5.29471e-07
4.87828e-07
2.06701e-07
1.74099e-07
3.21899e-07
2.89226e-07
3.09247e-07
1.75053e-07
1.7996e-09
-1.05052e-07
-1.16869e-07
-3.06621e-08
-5.66366e-08
-1.52073e-07
1.65854e-07
1.98345e-07
2.30567e-08
1.56541e-08
4.20179e-07
2.91104e-07
4.73923e-07
5.54041e-07
4.38163e-07
9.67532e-07
1.17162e-06
9.13272e-07
9.43927e-07
8.97435e-07
7.89332e-07
1.38077e-06
1.38627e-06
1.67737e-06
1.72498e-06
8.37509e-07
8.57815e-07
1.09875e-06
1.1025e-06
3.95619e-07
3.70602e-07
-1.26825e-08
-1.68149e-08
7.70063e-09
1.8491e-09
-1.69854e-08
-2.09793e-08
-4.42738e-08
-5.11879e-08
-9.85754e-08
-9.17599e-08
-1.09343e-08
1.23842e-07
1.1814e-07
1.40766e-07
1.44399e-07
8.8202e-08
9.39578e-08
2.18883e-07
2.1278e-07
2.54548e-09
1.36201e-09
3.24455e-08
3.20769e-08
1.39151e-08
1.36097e-08
6.50727e-09
6.4509e-09
7.21747e-09
7.20715e-09
1.25972e-08
1.28935e-08
8.63757e-09
8.51057e-09
9.50261e-09
9.67625e-09
9.61186e-09
9.72529e-09
7.3721e-09
7.45594e-09
7.70279e-09
7.56554e-09
8.01047e-09
7.92924e-09
7.97003e-09
7.83741e-09
9.0021e-09
9.08227e-09
6.47235e-09
6.39103e-09
6.15293e-09
6.06696e-09
7.6375e-09
7.78102e-09
9.30575e-09
9.52837e-09
9.35267e-09
9.59312e-09
9.47483e-09
9.77083e-09
7.9752e-09
7.82239e-09
9.74965e-09
9.76716e-09
8.38592e-09
8.55648e-09
8.44283e-09
8.09974e-09
6.79719e-09
6.58225e-09
6.6508e-09
6.75327e-09
6.17523e-09
6.37535e-09
4.9632e-09
4.80943e-09
5.1445e-09
5.30914e-09
3.87646e-09
3.7742e-09
4.20425e-09
4.10003e-09
4.99483e-09
4.87212e-09
6.03729e-09
6.08824e-09
6.64761e-09
6.70881e-09
7.10524e-09
7.18699e-09
6.17876e-09
6.03983e-09
5.99419e-09
6.07389e-09
5.23404e-09
5.13496e-09
5.93844e-09
5.8522e-09
5.15473e-09
5.04022e-09
4.1419e-09
4.25063e-09
4.07257e-09
4.18484e-09
3.72513e-09
3.84472e-09
3.8544e-09
3.7275e-09
3.35963e-09
3.47708e-09
3.35855e-09
3.23832e-09
3.39101e-09
3.47901e-09
3.59192e-09
3.49487e-09
3.95431e-09
3.81104e-09
4.84594e-09
4.77232e-09
3.71554e-09
3.59666e-09
3.67355e-09
3.57557e-09
3.27931e-09
3.3857e-09
3.5866e-09
3.70642e-09
2.89905e-09
2.795e-09
2.42524e-09
2.35162e-09
3.09521e-09
3.18513e-09
2.48449e-09
2.56258e-09
2.47921e-09
2.54568e-09
2.40884e-09
2.32982e-09
2.90173e-09
2.82231e-09
2.76281e-09
2.69238e-09
2.97723e-09
3.05448e-09
2.63345e-09
2.84356e-09
2.69025e-09
2.61417e-09
1.11905e-09
1.0823e-09
6.40221e-10
6.13656e-10
3.4516e-10
3.51485e-10
9.36736e-10
9.9053e-10
9.37788e-10
9.5413e-10
8.66092e-10
9.08888e-10
8.00569e-10
8.33938e-10
7.34372e-10
7.62711e-10
6.87945e-10
7.23644e-10
6.11591e-10
5.78007e-10
4.43455e-10
3.83978e-10
4.4599e-10
4.78628e-10
6.18018e-10
6.57815e-10
5.07081e-10
5.48276e-10
4.32892e-10
3.56348e-10
4.32482e-10
3.52039e-10
4.51471e-09
4.5227e-09
4.13546e-09
4.24744e-09
3.41767e-09
3.51354e-09
2.74818e-09
2.75104e-09
3.21746e-09
3.20976e-09
3.26601e-09
3.34179e-09
2.5266e-09
2.5404e-09
2.56175e-09
2.63615e-09
2.21417e-09
2.28607e-09
2.31838e-09
2.29308e-09
2.03229e-09
2.02048e-09
1.70113e-09
1.66051e-09
1.38743e-09
1.39988e-09
9.09655e-10
9.59128e-10
1.08205e-09
1.07563e-09
5.28455e-10
5.31321e-10
3.83815e-10
3.33063e-09
8.26243e-10
-1.23189e-07
-1.29394e-07
5.16582e-07
4.52208e-07
-6.28016e-08
-9.16951e-08
1.63992e-07
1.10838e-07
2.53851e-08
8.66218e-08
1.79031e-07
2.12687e-07
2.22663e-07
2.2058e-07
5.69238e-08
1.06933e-07
2.25158e-07
2.82584e-07
-5.27283e-08
-4.83233e-08
1.5775e-08
1.90385e-08
4.69092e-08
6.59728e-08
1.26702e-07
1.12096e-07
3.07481e-07
3.47249e-07
6.43236e-07
6.44297e-07
6.59488e-07
6.88073e-07
9.92296e-07
1.09478e-06
6.46546e-07
6.09347e-07
1.08153e-06
1.02352e-06
2.29554e-07
1.6505e-07
2.96933e-08
7.29958e-09
-3.41983e-09
5.26488e-08
-2.73362e-08
-9.44711e-09
2.91445e-08
7.45846e-08
9.81921e-08
1.4079e-07
1.85731e-07
1.59249e-07
2.96922e-08
-1.16185e-08
-8.13791e-08
-1.39475e-07
-6.94656e-08
3.78159e-08