/*--------------------------------*- C++ -*----------------------------------*\
  =========                 |
  \\      /  F ield         | OpenFOAM: The Open Source CFD Toolbox
   \\    /   O peration     | Website:  https://openfoam.org
    \\  /    A nd           | Version:  7
     \\/     M anipulation  |
\*---------------------------------------------------------------------------*/
FoamFile
{
    version     2.0;
    format      ascii;
    class       volScalarField;
    location    "1980";
    object      T;
}
// * * * * * * * * * * * * * * * * * * * * * * * * * * * * * * * * * * * * * //

dimensions      [0 0 0 1 0 0 0];

internalField   nonuniform List<scalar> 
238806
(
5.5885e-05
5.7074e-05
8.26706e-05
8.52178e-05
8.04673e-05
6.35192e-05
6.32004e-05
5.59278e-05
5.48575e-05
8.63987e-05
8.80672e-05
7.65386e-05
0.000119329
0.000121582
0.000133799
0.000125528
8.95584e-05
9.18468e-05
4.90141e-05
4.88834e-05
0.000108162
0.000112598
0.000126027
0.000128051
0.000133314
8.60461e-05
8.89932e-05
8.99075e-05
9.59056e-05
9.47223e-05
4.92229e-05
4.88323e-05
0.000108375
0.000102468
9.11091e-05
8.69937e-05
0.0293608
0.029512
8.3603e-05
8.1436e-05
8.46033e-05
9.01662e-05
5.43667e-05
5.40271e-05
4.93064e-05
4.94693e-05
0.000137306
0.000128816
9.688e-05
9.16289e-05
7.04423e-05
6.91449e-05
0.000113909
0.000116162
0.00667186
0.00660546
8.45809e-05
8.19775e-05
8.19575e-05
7.72646e-05
7.9311e-05
8.08666e-05
7.95214e-05
8.04081e-05
7.77052e-05
4.96462e-05
4.97665e-05
5.38958e-05
5.47861e-05
6.10796e-05
6.26493e-05
0.000108879
0.000115105
9.4652e-05
9.98705e-05
7.75973e-05
7.98012e-05
9.14779e-05
8.73752e-05
0.0015084
0.00150215
8.27172e-05
7.84524e-05
5.93523e-05
5.87777e-05
7.12329e-05
7.33847e-05
9.86094e-05
9.58355e-05
9.31354e-05
9.5595e-05
7.45762e-05
7.68742e-05
5.56844e-05
5.60935e-05
7.88436e-05
7.63033e-05
7.96628e-05
8.37457e-05
8.8453e-05
4.9969e-05
5.343e-05
5.40453e-05
5.48823e-05
5.45752e-05
0.000155245
0.000161735
0.000101345
0.000106641
0.00010554
0.000111635
7.97553e-05
7.70417e-05
7.17229e-05
7.30296e-05
0.000117583
0.000112171
0.0318666
0.031815
0.0319779
0.000116054
0.000122915
6.08533e-05
6.15596e-05
6.23113e-05
6.20152e-05
0.000141456
0.000142563
0.000104185
0.000102703
7.91918e-05
9.61748e-05
9.88276e-05
9.61469e-05
7.48119e-05
7.22626e-05
5.58369e-05
5.53379e-05
0.000117568
0.000122207
0.00011994
0.000117222
7.57777e-05
5.18761e-05
5.24923e-05
5.18667e-05
5.2376e-05
5.50266e-05
5.43509e-05
5.85949e-05
5.96939e-05
6.53525e-05
6.6679e-05
0.000152206
0.000159597
0.000113133
0.000118571
0.000112454
0.000118777
0.000112758
0.000117239
8.06563e-05
8.28881e-05
6.87923e-05
6.97844e-05
9.19189e-05
8.77546e-05
0.00120425
0.00120934
0.0292285
0.0293789
8.58161e-05
8.16612e-05
0.000309372
0.00031284
0.000312508
5.97684e-05
6.04098e-05
7.53073e-05
7.66224e-05
0.000152169
0.000152249
0.000102278
9.51131e-05
9.20014e-05
9.28258e-05
5.91084e-05
5.94437e-05
5.5195e-05
5.47687e-05
5.44696e-05
5.41189e-05
5.97639e-05
6.05393e-05
8.16759e-05
7.8415e-05
7.77478e-05
0.000102362
0.000101716
8.13284e-05
8.27733e-05
4.95188e-05
4.92335e-05
5.22798e-05
5.30374e-05
5.30316e-05
5.38077e-05
6.66945e-05
6.90286e-05
6.11955e-05
6.00412e-05
0.000227123
0.000224172
0.00017251
0.000180543
0.000141101
0.000133664
0.000121298
0.000114623
0.000103133
9.78875e-05
7.9583e-05
8.25265e-05
7.45091e-05
7.22569e-05
7.22934e-05
7.13329e-05
9.12496e-05
8.71115e-05
0.000654818
0.000627325
0.00325212
0.00312253
0.00299936
0.00287914
0.0114153
0.0118609
5.48637e-05
5.31079e-05
6.29522e-05
5.97647e-05
0.000137733
0.00014476
0.000397136
0.000409016
6.20357e-05
6.27615e-05
7.20398e-05
7.08772e-05
7.59733e-05
7.84264e-05
9.12731e-05
9.43935e-05
0.000123499
0.000121802
8.69345e-05
8.39121e-05
5.592e-05
5.54391e-05
5.5548e-05
5.50905e-05
5.53044e-05
5.48611e-05
8.80018e-05
8.76805e-05
6.11171e-05
6.01366e-05
8.19916e-05
8.34798e-05
0.000111595
0.000117828
7.3698e-05
0.000104435
6.73794e-05
6.91728e-05
6.5823e-05
4.97215e-05
5.0053e-05
5.05998e-05
5.10285e-05
5.31666e-05
5.26063e-05
5.78196e-05
5.63958e-05
5.69106e-05
5.68465e-05
6.01431e-05
6.07429e-05
0.000179177
0.000183882
0.000153567
0.000149352
0.000177896
0.000185848
0.0001578
0.000166067
0.000125605
0.000132941
0.000118166
0.000125196
0.000116254
0.000122642
0.000119841
0.000122761
8.90744e-05
9.31922e-05
7.75569e-05
7.88798e-05
7.48002e-05
7.70018e-05
0.000116337
0.000115598
9.63112e-05
9.56286e-05
9.72008e-05
0.000101552
0.00111095
0.00106797
0.000808569
0.00077507
0.00132745
0.00138271
0.00156491
0.00157124
0.00360854
0.00358739
0.0118836
0.0114345
0.0321105
8.90052e-05
8.50826e-05
0.000123503
0.000117015
0.00565111
0.00589297
0.000178012
0.000171195
0.000316567
0.00032269
6.36426e-05
6.50305e-05
6.12748e-05
6.09855e-05
7.42552e-05
7.30114e-05
8.08129e-05
8.39731e-05
0.000108211
0.000107608
0.000109864
0.000112174
6.4331e-05
6.23812e-05
5.61579e-05
5.57267e-05
5.69369e-05
5.74254e-05
5.73991e-05
5.47443e-05
5.51714e-05
8.19064e-05
8.15804e-05
6.79275e-05
6.60401e-05
6.19127e-05
6.08858e-05
9.01436e-05
9.42786e-05
0.000128045
6.52308e-05
6.7632e-05
9.01128e-05
8.5396e-05
7.84781e-05
7.56712e-05
7.5988e-05
7.82497e-05
5.56131e-05
5.67233e-05
5.01637e-05
4.98454e-05
5.06694e-05
5.0857e-05
5.0962e-05
5.15709e-05
5.15869e-05
5.22692e-05
8.01462e-05
7.72001e-05
7.16324e-05
6.92202e-05
5.57343e-05
5.61187e-05
5.487e-05
5.53724e-05
5.98052e-05
5.98304e-05
6.16428e-05
6.28591e-05
6.83938e-05
7.06009e-05
0.00021587
0.000219052
0.000143433
0.000137871
0.000183539
0.000191411
0.000162484
0.000170679
0.000144835
0.000153186
0.00013284
0.000141036
0.000120281
0.00012672
0.000117288
0.00011463
9.2398e-05
9.65967e-05
7.58329e-05
7.45196e-05
8.68346e-05
8.30887e-05
0.000100451
9.58398e-05
0.000100941
0.000100251
9.31127e-05
0.00091709
0.000883151
0.000656343
0.000628923
0.000876052
0.000913597
0.00100509
0.000962947
0.00312072
0.00325117
0.00270749
0.00261413
0.00332017
0.00345103
0.0208209
0.0207489
0.00429563
0.00413594
7.03857e-05
6.85152e-05
7.11159e-05
0.000128676
0.000131452
0.000128908
0.000132627
0.000130728
0.000128349
0.00640428
0.00634051
0.000273565
0.000282402
0.000303263
0.000308689
0.000316629
0.000316921
0.000182743
0.000181662
6.17161e-05
6.08812e-05
6.3409e-05
6.43692e-05
6.82045e-05
6.78507e-05
7.36406e-05
8.80126e-05
8.75697e-05
9.11141e-05
0.000113688
0.000119821
0.000119358
0.00011763
5.72956e-05
5.76101e-05
5.69177e-05
5.6216e-05
5.66474e-05
5.60634e-05
5.64101e-05
5.46465e-05
5.42787e-05
9.49932e-05
9.46691e-05
8.26644e-05
8.56109e-05
7.66488e-05
7.91789e-05
6.10191e-05
6.20983e-05
8.50405e-05
8.1342e-05
9.90053e-05
9.55952e-05
9.80032e-05
0.000124662
0.000108008
0.000107463
0.000109843
0.000112238
9.85766e-05
7.8498e-05
5.95603e-05
5.8092e-05
5.2746e-05
5.35743e-05
5.02655e-05
5.06576e-05
5.11437e-05
5.05205e-05
4.95574e-05
4.99207e-05
5.16708e-05
5.12019e-05
7.43957e-05
7.71333e-05
6.46135e-05
6.68668e-05
5.98442e-05
5.82501e-05
5.82913e-05
5.8246e-05
5.61005e-05
5.70789e-05
6.34349e-05
6.34516e-05
6.2473e-05
6.18532e-05
6.8835e-05
6.74748e-05
0.000242365
0.000238035
0.000186532
0.00017757
0.000127743
0.000122236
0.000155974
0.000149475
0.000170229
0.000162906
0.000154653
0.000147233
0.000167375
0.000175492
0.00014901
0.000157365
0.000136786
0.00014501
0.000114359
0.000108962
0.00012453
0.000131002
0.00010273
0.000101331
0.000108792
0.000105346
9.59572e-05
0.000100224
8.69671e-05
8.30175e-05
8.82472e-05
8.96031e-05
7.06794e-05
7.03657e-05
8.04827e-05
8.3028e-05
8.58454e-05
8.9304e-05
9.54747e-05
0.00010009
0.000106158
0.000111023
0.00161207
0.00167607
0.0010674
0.00111026
0.000809476
0.000775812
0.00125612
0.00126136
0.00138738
0.00133173
0.00179175
0.00186371
0.00289407
0.00290818
0.00263772
0.00263023
0.0034711
0.00333888
0.0225639
0.0232305
0.0298451
0.0300019
0.0070648
0.00704072
0.0124527
0.0124269
8.47718e-05
8.9904e-05
5.56094e-05
5.62128e-05
0.000141881
0.00014501
9.04321e-05
9.54766e-05
9.63012e-05
9.03836e-05
0.000125671
0.000119223
0.00553782
0.00548439
0.0222892
0.022415
0.000468372
0.00047187
0.000369972
0.000380749
0.000368714
0.000360448
0.000320482
0.000324836
0.000321877
0.000311803
6.50276e-05
6.64649e-05
6.12246e-05
6.00635e-05
5.89905e-05
5.81519e-05
6.40494e-05
6.27546e-05
6.64608e-05
6.61091e-05
7.57678e-05
7.34215e-05
8.13835e-05
8.45812e-05
0.000162747
0.0001621
0.000100394
0.000103668
0.000102836
0.00011112
0.000120308
6.91074e-05
6.95527e-05
5.8389e-05
5.90066e-05
5.65792e-05
5.7085e-05
5.67271e-05
5.709e-05
5.48904e-05
5.44942e-05
9.88387e-05
9.85114e-05
7.85417e-05
8.10988e-05
8.48446e-05
8.4522e-05
6.32126e-05
6.21459e-05
5.99868e-05
5.9059e-05
9.64035e-05
0.000100641
9.98506e-05
8.57115e-05
8.59981e-05
8.82748e-05
7.28991e-05
7.05452e-05
6.93745e-05
6.9971e-05
7.22486e-05
8.80804e-05
9.30115e-05
0.000118048
7.27012e-05
5.67613e-05
5.7995e-05
5.04442e-05
5.08397e-05
5.02776e-05
5.01234e-05
5.03862e-05
5.09163e-05
7.23016e-05
7.23984e-05
7.49031e-05
7.16265e-05
7.42936e-05
6.08891e-05
5.93289e-05
5.7487e-05
5.89972e-05
5.67988e-05
5.54527e-05
5.65121e-05
5.59795e-05
5.83345e-05
5.97308e-05
6.64846e-05
6.58365e-05
6.15404e-05
6.1536e-05
6.44092e-05
6.63279e-05
0.000192462
0.000187903
0.00021421
0.000218194
0.000219256
0.000217329
0.000180796
0.000176643
0.000135512
0.000129021
0.000132708
0.000127179
0.000150478
0.000143973
0.000168645
0.000175931
0.000149927
0.000142489
0.000153314
0.000161639
0.000140771
0.000149071
0.000110381
0.000105034
0.000112087
0.000109553
0.000117627
0.000122149
8.55782e-05
8.87388e-05
8.59646e-05
9.00015e-05
8.39818e-05
8.62472e-05
7.62373e-05
7.66789e-05
8.07217e-05
7.78778e-05
7.86426e-05
8.49721e-05
8.1091e-05
0.000104941
0.000105291
9.48947e-05
9.07576e-05
0.000108769
0.000103894
0.000174078
0.000167768
0.00161343
0.00161503
0.00119889
0.00124711
0.00117059
0.00116471
0.000710089
0.000740619
0.000915194
0.000877439
0.00100809
0.000965647
0.00311997
0.00325145
0.00212577
0.00213185
0.00201567
0.00200807
0.00254084
0.00245063
0.0025065
0.00241624
0.00307287
0.00295986
0.00307255
0.00319422
0.00938978
0.00904133
0.0213544
0.0206714
0.024539
0.0251778
0.0296117
0.0297654
0.0302623
0.0304262
0.0073413
0.00735715
0.031834
0.0316242
0.0318026
9.42957e-05
9.27294e-05
5.52946e-05
5.67976e-05
5.83706e-05
5.1283e-05
5.28472e-05
4.83598e-05
4.71137e-05
0.000129827
0.000132429
0.000102021
9.85966e-05
9.81961e-05
9.33848e-05
7.26379e-05
7.45803e-05
7.65954e-05
7.4406e-05
0.000239622
0.000257705
0.00929863
0.00964939
0.00626923
0.00620793
0.00849994
0.00841562
0.0165221
0.0164359
0.000354187
0.000340397
0.000256917
0.000265074
0.000358318
0.000369301
0.000392093
0.000404064
0.000343527
0.000351108
0.000316277
0.000316533
0.000319789
0.000307776
0.000312092
7.40939e-05
7.2006e-05
6.22029e-05
6.32999e-05
6.04335e-05
5.96662e-05
6.00881e-05
6.28071e-05
6.21005e-05
6.16078e-05
6.76413e-05
6.63994e-05
7.39917e-05
7.44407e-05
7.12971e-05
6.9267e-05
8.79941e-05
8.48135e-05
0.000153142
0.000151968
9.53912e-05
9.86011e-05
0.000107305
9.97442e-05
7.16167e-05
7.25992e-05
5.80915e-05
5.75554e-05
5.81059e-05
5.82665e-05
5.67135e-05
5.73204e-05
5.5061e-05
5.55284e-05
9.13846e-05
9.10613e-05
8.38555e-05
8.6824e-05
7.14652e-05
6.91364e-05
6.32516e-05
6.44757e-05
5.92053e-05
5.83488e-05
9.08098e-05
8.68805e-05
8.72006e-05
0.000129159
0.000134626
0.000126077
9.73366e-05
9.97058e-05
0.000108207
0.000111139
0.000113437
0.000120643
7.11173e-05
6.77855e-05
8.58462e-05
8.19567e-05
5.11416e-05
5.03949e-05
5.15426e-05
5.20685e-05
5.11381e-05
5.16451e-05
5.04497e-05
5.00544e-05
6.59616e-05
6.67643e-05
6.95012e-05
6.26129e-05
6.08145e-05
5.70315e-05
5.84745e-05
5.44775e-05
5.45748e-05
5.83465e-05
5.72903e-05
6.55271e-05
6.55617e-05
6.46873e-05
6.34103e-05
0.000230458
0.000234907
0.000234054
0.000230419
0.000208341
0.000210427
0.000166947
0.000171181
0.000145426
0.000123032
0.000117556
0.000143647
0.000149209
0.000164787
0.000157428
0.000137969
0.000145414
0.000129043
0.000121821
9.80998e-05
9.67155e-05
0.000128199
0.000132792
0.000110111
0.000113612
9.66268e-05
9.99713e-05
8.55095e-05
8.2439e-05
8.75798e-05
8.98826e-05
8.38062e-05
8.32163e-05
6.83055e-05
6.78789e-05
6.7831e-05
6.81393e-05
7.61788e-05
7.79356e-05
7.74543e-05
0.000110024
0.000110337
9.31304e-05
8.89587e-05
0.000107036
0.000102157
0.00167382
0.00167495
0.00167736
0.00167894
0.0013003
0.00130144
0.00115478
0.00115559
0.000701655
0.000674874
0.000741379
0.000710754
0.000916837
0.000878853
0.00119949
0.00125114
0.00127808
0.00127417
0.00186111
0.00186257
0.00221016
0.0022166
0.00178955
0.00178246
0.0036558
0.00379888
0.00268265
0.00269386
0.00279471
0.00289883
0.00242448
0.00233644
0.00248901
0.00239914
0.00356325
0.00370443
0.0030372
0.00292188
0.00321152
0.00308834
0.00480725
0.00482677
0.021438
0.0215158
0.0252822
0.0246377
0.0294885
0.0296409
0.0273488
0.0266557
0.0118087
0.012247
0.00736827
0.0070806
0.012504
0.0124784
0.0154409
0.0153981
6.36508e-05
6.13009e-05
6.08845e-05
8.63434e-05
9.15166e-05
6.4635e-05
6.74913e-05
6.29723e-05
5.92197e-05
0.000369204
0.000389124
5.48649e-05
5.67316e-05
0.000148563
0.000151798
0.000135261
0.000138225
8.7532e-05
9.28448e-05
8.34517e-05
8.63922e-05
8.46266e-05
8.30215e-05
0.000192336
0.000181723
0.00027824
0.000276682
0.0162858
0.0166476
0.00521059
0.00515985
0.00646821
0.00653226
0.00614674
0.00608557
0.0191154
0.0190121
0.013915
0.0137912
0.000169607
0.000162847
0.000700398
0.000697534
0.00046142
0.000454681
0.000192756
0.000185043
0.000289452
0.000280694
0.000385894
0.000375222
0.000338843
0.000346524
0.000337591
0.00033041
0.000314524
0.00032075
0.000324178
0.000184873
6.24836e-05
6.37666e-05
5.80458e-05
5.88622e-05
6.48358e-05
6.59539e-05
6.71216e-05
6.55018e-05
7.21971e-05
7.17867e-05
8.19638e-05
7.90572e-05
8.13005e-05
7.82609e-05
0.000161393
0.00016126
0.000168262
0.000141109
0.000143706
8.57619e-05
8.86536e-05
0.000113776
0.000116339
6.73403e-05
6.59803e-05
6.64351e-05
6.74102e-05
6.02972e-05
6.07732e-05
5.77886e-05
5.56473e-05
5.61606e-05
5.74873e-05
5.78635e-05
8.73911e-05
9.01913e-05
9.34159e-05
9.21693e-05
7.99298e-05
7.73961e-05
6.46239e-05
6.62319e-05
7.49563e-05
7.3595e-05
7.19353e-05
8.32224e-05
8.02628e-05
9.28226e-05
8.86141e-05
0.000108755
0.000103892
0.00010474
8.64511e-05
8.35827e-05
8.76288e-05
9.22875e-05
9.42408e-05
0.000102699
0.000105354
0.000115913
0.000123065
7.48308e-05
5.5884e-05
5.61105e-05
5.22584e-05
5.20035e-05
5.13155e-05
5.0864e-05
5.11764e-05
5.11669e-05
6.25212e-05
6.18536e-05
6.80406e-05
6.99485e-05
6.2897e-05
6.11137e-05
5.92056e-05
5.77847e-05
5.91823e-05
5.86026e-05
5.56756e-05
5.55934e-05
6.37466e-05
6.43826e-05
0.000214199
0.000218946
0.000197867
0.000201605
0.000222544
0.00022634
0.000215781
0.000214348
0.000157795
0.000161973
0.000157624
0.000153373
0.000133755
0.000140257
0.000137936
0.000132387
0.000136949
0.000129546
0.000116334
0.000117641
0.000126075
0.000129797
0.000104247
0.000100851
9.97682e-05
0.000104099
8.57581e-05
8.44137e-05
9.14496e-05
9.37887e-05
7.95769e-05
8.0073e-05
7.04194e-05
7.08622e-05
7.34925e-05
7.31543e-05
7.36162e-05
7.53948e-05
0.000110226
0.000110939
0.000115352
0.000115595
9.92736e-05
9.75265e-05
0.00161086
0.00160962
0.00135299
0.00135423
0.00125078
0.00120218
0.000909728
0.000872743
0.00111549
0.00110901
0.000660589
0.00065595
0.000681298
0.000680717
0.00077239
0.000805504
0.000841229
0.000840037
0.00101156
0.000968834
0.00123396
0.0011835
0.00313394
0.00325845
0.00179069
0.00178931
0.00171027
0.00178026
0.00169892
0.0016923
0.00191527
0.00190767
0.00202333
0.0031657
0.00304051
0.00291929
0.00280356
0.00266781
0.0027863
0.00289021
0.00243273
0.00234458
0.00232835
0.00232011
0.00252637
0.00251828
0.00262124
0.00272851
0.00347353
0.00334372
0.00305593
0.00294233
0.00322875
0.00310445
0.00467015
0.00449433
0.00392802
0.00391587
0.0208987
0.0215622
0.0198457
0.0205231
0.0239837
0.0238894
0.0284022
0.0288495
0.0297305
0.0298858
0.0282838
0.0288216
0.0117909
0.0122257
0.00665025
0.00663869
0.00941215
0.00941816
0.0134995
0.0135307
0.0129211
0.0129509
0.0197407
0.0197167
0.0315912
0.0315823
6.6965e-05
6.38566e-05
8.00575e-05
8.17818e-05
6.22918e-05
6.4495e-05
7.17782e-05
7.46623e-05
5.85519e-05
5.9539e-05
6.19741e-05
0.000104655
0.000102752
4.48905e-05
4.41284e-05
0.000141719
0.000147557
0.000144709
0.000126036
0.000123487
9.84109e-05
0.000103974
7.07798e-05
7.0839e-05
6.91589e-05
6.8229e-05
7.94875e-05
7.89766e-05
9.05162e-05
0.000244946
0.000240099
0.000259333
0.000241286
0.0087749
0.00869621
0.0184129
0.0185305
0.00821556
0.00827489
0.00590902
0.00585708
0.0067386
0.00680548
0.018632
0.0185054
0.0142829
0.0144103
0.000215025
0.000205718
0.000188177
0.000180705
0.000671051
0.000673525
0.000606773
0.00058614
0.000523882
0.000521805
0.000474682
0.000476778
0.000272274
0.000264172
0.000386635
0.000398698
0.000411987
0.000423441
0.00033532
0.000343087
0.000352532
0.000344941
0.000310924
0.000305856
6.76758e-05
6.93822e-05
6.65066e-05
6.81777e-05
5.93028e-05
5.83836e-05
6.0604e-05
5.96866e-05
6.81133e-05
6.94719e-05
7.01173e-05
6.97416e-05
7.63966e-05
7.36901e-05
7.83571e-05
7.57343e-05
0.000130038
0.000130371
0.000136684
9.26984e-05
9.40099e-05
8.96647e-05
9.20321e-05
0.000106475
0.000109603
6.79566e-05
6.99623e-05
5.86459e-05
5.96745e-05
5.63655e-05
5.58103e-05
0.000100905
9.96362e-05
8.87783e-05
9.00082e-05
5.84812e-05
5.78149e-05
6.55104e-05
6.43247e-05
6.21137e-05
6.33023e-05
9.93357e-05
0.000104587
0.000102101
8.67376e-05
8.86319e-05
8.02053e-05
7.77188e-05
9.41542e-05
9.22221e-05
9.00404e-05
8.32909e-05
0.000111805
0.000111235
0.000227346
0.000225504
8.07028e-05
7.74378e-05
8.87957e-05
9.51344e-05
9.04245e-05
0.000113442
0.00011684
0.00011935
0.00010712
0.000109502
5.48871e-05
5.40879e-05
5.43723e-05
5.49104e-05
5.15092e-05
5.12907e-05
4.92208e-05
4.89179e-05
4.9149e-05
5.26151e-05
5.26511e-05
5.12726e-05
5.15014e-05
6.06698e-05
6.00777e-05
6.75229e-05
6.57494e-05
6.69984e-05
6.48865e-05
5.935e-05
6.1041e-05
5.7219e-05
5.77761e-05
0.000205753
0.000210659
0.000239697
0.000247049
0.000205552
0.00020974
0.000187245
0.000190793
0.000190506
0.000198057
0.000197892
0.000195044
0.000165541
0.000168795
0.000160784
0.000162424
0.000138735
0.000145241
0.000112582
0.000111176
0.000124084
0.000120447
0.000122769
0.000127331
9.59647e-05
9.26742e-05
0.000103832
0.000108219
8.21846e-05
8.0851e-05
7.95495e-05
7.99734e-05
7.31995e-05
7.36466e-05
7.11496e-05
7.29361e-05
0.000105116
0.000105815
0.000598907
0.000598642
0.00141137
0.00141033
0.00144539
0.00150363
0.00119736
0.00124542
0.00106674
0.0011094
0.000871017
0.000909409
0.00145407
0.00146033
0.000913636
0.000953445
0.000721404
0.000723754
0.000817155
0.000779328
0.000742232
0.000711589
0.000920403
0.000881847
0.000806524
0.00077327
0.000842436
0.00101565
0.000972712
0.00105587
0.000952727
0.000993478
0.00117342
0.00122285
0.00375826
0.0039075
0.00352323
0.00338567
0.00245417
0.00245584
0.00192543
0.00192203
0.00153886
0.00153303
0.00157753
0.00151466
0.00205431
0.00206204
0.00184054
0.0018332
0.00215646
0.00214847
0.00327159
0.0034018
0.0027917
0.00277569
0.00236154
0.00235287
0.002607
0.0027021
0.00240782
0.00249799
0.0022431
0.00223516
0.00273904
0.00274884
0.00333008
0.00345959
0.00315712
0.00317481
0.00283976
0.00295444
0.00362885
0.00349036
0.00742991
0.0077272
0.00412217
0.00396806
0.00424184
0.00425357
0.00393844
0.0104211
0.0108127
0.0261457
0.0254171
0.0211737
0.0205005
0.0256249
0.0249721
0.0254662
0.0248136
0.0267335
0.0261087
0.0289669
0.028515
0.0295663
0.0294546
0.0290056
0.0284566
0.030164
0.0303261
0.00429778
0.00413706
0.00933908
0.00935543
0.0110783
0.0110991
0.0101686
0.0105692
0.0139605
0.0140006
0.0129798
0.0130079
0.0184582
0.0184148
0.026535
0.0265163
0.0319892
0.0320942
0.00017791
0.000175938
8.74815e-05
8.31692e-05
8.54935e-05
7.5965e-05
7.77381e-05
7.2656e-05
7.40575e-05
7.54065e-05
6.68326e-05
5.35933e-05
0.000143404
0.000148242
7.5192e-05
7.80269e-05
4.57216e-05
4.53953e-05
5.87125e-05
5.67398e-05
0.000138746
0.000136066
9.22403e-05
8.86081e-05
0.00010894
0.000103396
6.94892e-05
7.21186e-05
6.88119e-05
7.4054e-05
7.22647e-05
7.15966e-05
7.44579e-05
0.000106648
0.000101768
0.000101279
0.000354235
0.00035579
0.000199671
0.000189085
0.000636047
0.000606485
0.00434287
0.00434581
0.0121567
0.0117215
0.0182728
0.0183896
0.00891991
0.00859187
0.00431365
0.00434567
0.00610648
0.00616068
0.00589878
0.00584029
0.0075368
0.00746179
0.00965853
0.00956745
0.0220739
0.0222009
0.0159376
0.015797
0.0244701
0.0249369
0.000166078
0.000159397
0.000173589
0.000166773
0.00046882
0.000486734
0.000548291
0.00057161
0.000539427
0.000549462
0.000535605
0.000462223
0.000459951
0.000223061
0.00023233
0.000319051
0.000328238
0.000380839
0.00039298
0.000405737
0.000417408
0.000405976
0.00039597
0.000297698
0.000304323
0.000341591
0.000349211
0.000330473
0.000337377
0.000191162
0.000190908
6.5762e-05
6.74639e-05
6.80628e-05
7.00392e-05
5.99191e-05
6.03151e-05
5.88412e-05
5.8065e-05
6.99912e-05
7.14685e-05
6.48986e-05
6.45575e-05
7.60292e-05
7.86096e-05
0.000172935
0.000171905
0.000130589
9.6782e-05
5.73096e-05
5.6833e-05
9.57863e-05
9.70462e-05
5.72111e-05
6.57714e-05
6.71617e-05
6.34377e-05
6.46783e-05
7.91703e-05
7.74396e-05
8.1515e-05
7.80962e-05
7.58934e-05
7.58817e-05
9.87057e-05
0.000105865
0.000104769
0.000136249
0.000164705
0.000163395
7.81204e-05
7.46946e-05
9.28896e-05
9.05444e-05
0.000105847
0.000100324
0.000126224
5.79757e-05
5.96761e-05
6.29742e-05
5.52536e-05
5.48519e-05
5.44816e-05
5.56338e-05
5.35762e-05
5.43972e-05
5.00357e-05
5.00459e-05
4.91393e-05
4.92927e-05
5.34871e-05
5.35482e-05
5.22065e-05
5.19571e-05
6.29242e-05
6.16111e-05
6.45566e-05
6.38135e-05
6.2646e-05
6.45811e-05
0.000170342
0.000174676
0.000188821
0.000194015
0.000215854
0.000223998
0.000231981
0.000210496
0.000207043
0.000212989
0.000221552
0.00021281
0.000204158
0.000182074
0.000175268
0.000184693
0.000171693
9.79679e-05
9.55927e-05
0.000107577
0.000106165
0.000133956
0.000138563
9.22201e-05
8.89905e-05
8.31385e-05
8.35388e-05
7.49988e-05
7.41657e-05
0.000676516
0.00070043
0.000399199
0.000400019
0.00265706
0.00255648
0.000876109
0.000840233
0.00088072
0.000915315
0.00134978
0.00134775
0.00106492
0.00110721
0.00120128
0.00124976
0.0011538
0.000760065
0.00073372
0.00134583
0.00133946
0.00140822
0.00146649
0.000896707
0.000863184
0.000707222
0.000680366
0.000684966
0.000689232
0.000686191
0.000688324
0.000652884
0.000625437
0.000682123
0.00084365
0.000844854
0.00080756
0.000774186
0.00102023
0.000977195
0.00104889
0.00105217
0.00140212
0.00134536
0.00122642
0.00117664
0.00350412
0.00364098
0.00338476
0.00352199
0.00253785
0.00263146
0.00245165
0.00159022
0.00158904
0.00211936
0.0022033
0.00176704
0.0017737
0.00164898
0.00165512
0.00163193
0.00162568
0.00181093
0.0018038
0.0019228
0.00184782
0.00207311
0.00206516
0.00216412
0.00370571
0.00356416
0.00303128
0.00315723
0.00244127
0.00253101
0.00290832
0.00280472
0.00251467
0.00252266
0.00236439
0.00227825
0.00242756
0.00241973
0.00253271
0.00357965
0.00372131
0.00308793
0.00297492
0.00319125
0.00296868
0.0028522
0.00366786
0.00352778
0.00335712
0.00410664
0.00410297
0.00413447
0.00397937
0.00410359
0.0041118
0.00426105
0.00409578
0.00900801
0.00935489
0.0168625
0.0169541
0.0246013
0.0243915
0.0249567
0.0212657
0.0205884
0.0212084
0.0218895
0.023321
0.0226513
0.0241561
0.0240728
0.0268243
0.0261908
0.0290791
0.028622
0.0293385
0.0292177
0.0263446
0.0270395
0.0289152
0.0283711
0.029828
0.030235
0.00543169
0.00564509
0.00613868
0.00638434
0.00965814
0.00967782
0.00861286
0.00862173
0.00718459
0.00692469
0.00980125
0.0098006
0.0110304
0.0110156
0.0137338
0.0132351
0.0140383
0.0140732
0.0148983
0.0148542
0.0183698
0.01833
0.0314114
0.0314664
0.0319795
0.0320138
0.0320729
0.00020716
0.000215013
4.79258e-05
4.9106e-05
7.78725e-05
7.50962e-05
7.88374e-05
8.83726e-05
7.78511e-05
7.69503e-05
6.64698e-05
7.08062e-05
7.37084e-05
7.08029e-05
0.000368634
0.000388329
9.71179e-05
9.90204e-05
5.58989e-05
5.792e-05
4.65984e-05
4.65056e-05
4.46482e-05
4.39714e-05
4.79099e-05
4.72095e-05
5.4833e-05
5.57064e-05
0.000124693
0.000117903
9.54331e-05
9.20186e-05
0.000109532
0.000112241
0.000114807
7.03362e-05
7.39192e-05
7.2937e-05
6.02211e-05
5.7726e-05
7.69736e-05
7.52004e-05
8.06539e-05
5.0898e-05
4.93211e-05
4.89853e-05
0.000258405
0.000254527
0.000249932
0.000206001
0.000222395
0.00101031
0.00100014
0.00159286
0.00159796
0.00618217
0.00614264
0.0127075
0.0122498
0.0122435
0.0118058
0.0181376
0.0182536
0.0155617
0.0160311
0.00853044
0.00885635
0.00434717
0.00430766
0.00636537
0.00642192
0.00651395
0.0065744
0.00566031
0.00560435
0.00745649
0.00752973
0.00816762
0.00808636
0.0179726
0.017813
0.0215405
0.0218467
0.0227209
0.0228468
0.0150275
0.014903
0.0160335
0.0159228
0.0200219
0.020553
0.0265379
0.026688
0.000180586
0.000173116
0.000185139
0.000192604
0.00048199
0.000463965
0.000575757
0.000552555
0.00042777
0.000421598
0.000528766
0.000533264
0.000456987
0.000453378
0.000292201
0.000305234
0.000264185
0.000257611
0.000374775
0.000386992
0.000375195
0.00036431
0.000409178
0.00042074
0.000386443
0.000377373
0.000301553
0.000295799
0.000331083
0.000338951
0.000327362
0.000334311
0.000344638
0.000352213
0.000200713
0.000206763
6.38996e-05
6.33285e-05
6.48589e-05
6.9723e-05
7.15943e-05
6.09505e-05
6.1459e-05
6.89133e-05
0.000175612
0.000189913
0.000185177
5.84202e-05
5.81955e-05
5.78458e-05
6.7539e-05
6.96461e-05
9.22768e-05
8.92151e-05
7.0241e-05
7.27329e-05
7.39266e-05
8.50554e-05
0.000113953
0.00017298
0.000172663
0.000134228
0.000141807
0.000143283
8.07123e-05
8.40185e-05
0.000103558
0.000101153
6.35216e-05
6.51194e-05
6.64582e-05
5.73586e-05
5.79104e-05
5.31406e-05
5.20411e-05
5.39879e-05
5.35014e-05
5.45504e-05
5.54893e-05
5.05666e-05
5.05735e-05
4.97756e-05
4.9622e-05
5.38796e-05
5.35958e-05
5.18458e-05
5.18649e-05
6.35782e-05
6.50538e-05
0.000201119
0.000196736
0.000199473
0.00020765
0.000227065
0.000222474
0.000194292
0.000203827
0.000205973
0.000207147
0.00016613
9.99999e-05
0.000102415
9.37209e-05
9.23507e-05
0.000118704
0.000115142
7.62199e-05
7.66225e-05
0.000316669
0.000307539
0.000225163
0.000227462
0.0004178
0.000417684
0.00236181
0.00236209
0.00236939
0.00237034
0.000831209
0.000798916
0.00106863
0.00111168
0.00111043
0.00106733
0.000772743
0.000745804
0.00146483
0.00146633
0.00129894
0.0013515
0.00115268
0.0011513
0.00120015
0.00124851
0.000762907
0.000736698
0.00129179
0.00128537
0.00140199
0.00139568
0.00108873
0.00104685
0.000719169
0.00069191
0.000713147
0.000686101
0.000692853
0.000665084
0.000772641
0.000810789
0.000651117
0.000646187
0.000683196
0.000684538
0.000625062
0.000652406
0.000880319
0.000918563
0.0010601
0.00106478
0.000999985
0.000958436
0.00134069
0.00139709
0.00123011
0.00117999
0.00374817
0.00389712
0.00379045
0.00394031
0.00338476
0.00352135
0.00255118
0.00255378
0.00218342
0.00218371
0.00165334
0.00165457
0.00176542
0.00183629
0.00167798
0.00168315
0.00170383
0.00169731
0.00152702
0.00152089
0.00147791
0.00147216
0.00213508
0.00214303
0.00195294
0.0019605
0.00193032
0.00193783
0.00177542
0.00176842
0.00217149
0.00217876
0.00199275
0.00198493
0.00313045
0.00301501
0.00355455
0.0036953
0.00302285
0.0031498
0.00239571
0.0023881
0.00259079
0.0026867
0.00280106
0.00290516
0.00287964
0.00277618
0.00237247
0.00228619
0.00233333
0.0023255
0.00354579
0.00368649
0.00310117
0.00298787
0.00326388
0.00313894
0.00298342
0.00286497
0.00339322
0.00337526
0.00741774
0.0077156
0.00479987
0.00498584
0.00428006
0.00429393
0.00443028
0.00442778
0.00408651
0.00407453
0.0103627
0.0107523
0.0177541
0.0183638
0.0270766
0.027266
0.0230886
0.0223653
0.0221358
0.0222205
0.0226298
0.0219476
0.0222382
0.0215601
0.0219728
0.0212851
0.0234087
0.022738
0.0247298
0.025379
0.0290915
0.0292415
0.0291866
0.0287241
0.027189
0.0264866
0.029093
0.02854
0.0304477
0.030615
0.0306183
0.0307891
0.00503804
0.00504054
0.00564861
0.00543512
0.00639783
0.00615394
0.00969535
0.00971198
0.00766559
0.00766451
0.00717475
0.00692239
0.0102009
0.0102068
0.00979568
0.00941933
0.0119281
0.0114716
0.0110003
0.0109846
0.0134667
0.0134323
0.0161302
0.0160321
0.0190515
0.0190838
0.0248352
0.0240967
0.023451
0.0234582
0.0302637
0.03026
0.0317662
0.000223239
0.000231083
0.000163579
0.000171505
5.07963e-05
5.23233e-05
9.55868e-05
9.48872e-05
6.85003e-05
7.21619e-05
8.14838e-05
8.33543e-05
6.36901e-05
6.27687e-05
6.07689e-05
6.12404e-05
6.90447e-05
6.6622e-05
5.35192e-05
5.13136e-05
0.000188464
0.000192861
0.000160254
0.000156528
9.53766e-05
9.20323e-05
7.64576e-05
8.0262e-05
5.66423e-05
5.47046e-05
4.74624e-05
4.75782e-05
4.76998e-05
4.71756e-05
4.45395e-05
4.39435e-05
4.85905e-05
4.97354e-05
4.44331e-05
4.49262e-05
5.29664e-05
5.338e-05
0.000107929
0.000112312
0.00011065
9.53484e-05
0.000106431
0.000100844
8.46429e-05
7.96422e-05
6.95699e-05
6.71746e-05
6.52797e-05
6.30065e-05
6.1433e-05
6.51329e-05
9.85006e-05
9.62713e-05
0.0001024
6.37937e-05
6.36612e-05
8.3334e-05
8.17356e-05
0.000274073
0.000265969
0.000264751
0.000257326
0.000203544
0.000211035
0.000262168
0.000244265
0.000340658
0.000339315
0.000616439
0.000594432
0.000412828
0.000415484
0.00593092
0.00568762
0.00539756
0.00516907
0.0094943
0.00912867
0.00949212
0.0098709
0.0167484
0.0163849
0.0182051
0.0180665
0.0164892
0.0169298
0.00738151
0.00710556
0.0048386
0.00486981
0.00364681
0.00367949
0.00493266
0.0048866
0.00925151
0.00894658
0.00621441
0.00596038
0.00571627
0.00577228
0.00543106
0.00537764
0.00832462
0.00840417
0.00722922
0.00715913
0.00784671
0.00776852
0.0111575
0.0110516
0.017053
0.0169133
0.0220637
0.0217596
0.0140198
0.014133
0.0145259
0.0144013
0.0155318
0.015411
0.0166547
0.0216304
0.0221788
0.0263416
0.0264891
0.000176698
0.000184165
0.000694427
0.000691071
0.000388569
0.000373623
0.000493156
0.000472262
0.000677251
0.000703179
0.000401057
0.00039474
0.000430146
0.000423743
0.000517815
0.000523629
0.000504298
0.000501016
0.000493318
0.000492445
0.000450288
0.00045138
0.00029041
0.000303557
0.000271725
0.000265473
0.000311199
0.000321617
0.000340551
0.000331597
0.000337826
0.000347836
0.000401705
0.000413481
0.000415603
0.000426848
0.000376074
0.00038522
0.000360127
0.000368412
0.00030953
0.000303009
0.000320814
0.000327898
0.000336271
0.00032934
0.000219868
0.000210644
0.00019311
6.63369e-05