/*--------------------------------*- C++ -*----------------------------------*\
  =========                 |
  \\      /  F ield         | OpenFOAM: The Open Source CFD Toolbox
   \\    /   O peration     | Website:  https://openfoam.org
    \\  /    A nd           | Version:  7
     \\/     M anipulation  |
\*---------------------------------------------------------------------------*/
FoamFile
{
    version     2.0;
    format      ascii;
    class       volScalarField;
    location    "0.02";
    object      p;
}
// * * * * * * * * * * * * * * * * * * * * * * * * * * * * * * * * * * * * * //

dimensions      [0 2 -2 0 0 0 0];

internalField   nonuniform List<scalar> 
238806
(
7.29431e-07
7.2274e-07
3.24652e-08
1.91254e-07
1.02905e-07
6.8054e-07
6.88879e-07
7.52424e-07
8.26933e-07
2.30095e-07
2.48776e-07
3.31121e-07
1.0068e-07
9.62724e-08
-2.43029e-08
-3.662e-08
2.0379e-07
1.63243e-07
2.18763e-06
2.20415e-06
1.25414e-07
1.1529e-07
-2.46313e-08
1.03098e-08
3.59196e-08
1.69997e-07
1.11819e-07
1.66342e-07
3.73849e-08
-5.11547e-08
1.95549e-06
2.16468e-06
9.05843e-08
1.12499e-07
1.68431e-07
1.84504e-07
4.91185e-10
4.06581e-10
2.09577e-07
3.29872e-07
2.74557e-07
6.76218e-08
2.44175e-06
2.67482e-06
1.97561e-06
1.95707e-06
-7.87665e-09
9.20969e-09
1.34758e-07
1.56664e-07
3.11887e-07
3.22523e-07
1.09151e-07
1.04151e-07
-1.65149e-09
-1.73595e-09
2.41473e-07
1.39724e-07
2.31484e-07
3.08561e-07
2.52616e-07
4.05929e-07
2.82573e-07
3.42096e-07
3.83402e-07
1.76805e-06
1.77001e-06
9.33366e-07
8.45607e-07
4.94758e-07
4.45399e-07
1.03573e-07
8.4257e-08
1.52122e-07
1.30282e-07
2.44048e-07
2.29456e-07
1.68069e-07
1.83914e-07
1.07969e-08
1.05903e-08
6.82916e-08
9.73311e-08
1.12742e-06
1.18299e-06
4.62104e-07
4.20065e-07
1.15885e-07
4.13863e-08
1.55078e-07
1.19011e-07
4.06859e-07
2.94052e-07
2.05106e-06
2.00029e-06
3.23038e-07
3.52549e-07
2.00221e-07
1.64289e-07
4.4222e-08
1.7476e-06
9.39507e-07
8.90758e-07
7.99146e-07
8.02242e-07
6.44352e-08
5.78092e-08
1.34781e-07
1.173e-07
1.08412e-07
8.70023e-08
2.3825e-07
2.60693e-07
2.91516e-07
2.81455e-07
1.04354e-07
1.13238e-07
2.03052e-10
4.15781e-10
7.37171e-11
-1.27446e-07
-1.23538e-07
9.45142e-07
8.98699e-07
7.50943e-07
7.59706e-07
-6.06238e-08
-7.8799e-08
8.3825e-08
9.18497e-08
3.43032e-07
7.95034e-08
1.33098e-07
5.3266e-08
2.17151e-07
3.61077e-07
1.89247e-06
2.11069e-06
-1.6728e-07
1.31899e-08
-4.67001e-08
8.93816e-09
2.38447e-07
1.31166e-06
1.0689e-06
1.17877e-06
1.1195e-06
7.99805e-07
8.4142e-07
5.77404e-07
5.43142e-07
3.80738e-07
3.60876e-07
5.62184e-08
4.70291e-08
1.11376e-07
9.90333e-08
9.96822e-08
8.22698e-08
1.16462e-07
1.07574e-07
2.22919e-07
2.11164e-07
3.22506e-07
3.1233e-07
1.64016e-07
1.79896e-07
1.13922e-08
1.16225e-08
4.92816e-10
4.09678e-10
6.10042e-08
8.59613e-08
-2.0055e-08
-7.86751e-09
1.15423e-08
1.05349e-06
1.00101e-06
3.71615e-07
3.58376e-07
-4.91228e-08
-7.31151e-08
2.31246e-08
1.57796e-07
7.52326e-08
1.29544e-07
1.10812e-06
1.02574e-06
2.27328e-06
2.53175e-06
2.42356e-06
2.66179e-06
1.08519e-06
9.2613e-07
1.97069e-07
6.21711e-08
2.05637e-07
1.17328e-08
-3.20714e-09
6.40988e-08
-5.82685e-09
2.10153e-06
2.15227e-06
1.17772e-06
1.11832e-06
1.04548e-06
9.3643e-07
3.84648e-07
3.47758e-07
4.88516e-07
5.20133e-07
-3.18169e-08
-3.88061e-08
3.79491e-08
2.99549e-08
4.85699e-08
6.24846e-08
5.9238e-08
7.44846e-08
1.23312e-07
1.43036e-07
2.36373e-07
2.18838e-07
2.57719e-07
2.95318e-07
2.84625e-07
2.92171e-07
1.67088e-07
1.8317e-07
1.52947e-08
1.58471e-08
1.01891e-08
1.04406e-08
4.92755e-09
5.01366e-09
4.26159e-09
4.11968e-09
3.69384e-07
4.2295e-07
6.11044e-08
1.30765e-07
-1.34039e-07
-1.50436e-07
2.6166e-08
2.64391e-08
8.44341e-07
8.0326e-07
4.30865e-07
4.47651e-07
3.70451e-07
3.42126e-07
2.17743e-07
2.24568e-07
7.27156e-08
7.83091e-08
1.4295e-07
2.04897e-07
1.96665e-06
2.30542e-06
2.18193e-06
2.45598e-06
1.98216e-06
2.19759e-06
2.49121e-07
2.51156e-07
9.1507e-07
1.00919e-06
2.81657e-07
3.03652e-07
3.44535e-08
1.81494e-08
2.97723e-07
-1.34533e-09
6.72536e-08
2.43704e-07
1.92904e-07
1.91739e-06
1.85626e-06
1.47571e-06
1.39998e-06
9.9999e-07
1.05287e-06
6.33708e-07
6.75208e-07
6.3661e-07
6.40467e-07
5.02704e-07
4.88488e-07
1.83507e-08
2.07242e-08
-5.41723e-09
-1.35341e-08
3.80741e-08
3.08159e-08
3.67863e-08
2.60471e-08
6.49518e-08
4.75414e-08
6.67852e-08
4.53738e-08
9.48852e-08
7.91436e-08
1.01802e-07
1.02699e-07
1.82878e-07
1.63911e-07
2.3949e-07
2.3255e-07
2.67611e-07
2.48337e-07
1.07212e-07
1.09245e-07
1.49902e-07
1.52785e-07
1.43599e-07
1.32161e-07
1.66716e-08
1.69714e-08
1.30538e-08
1.34318e-08
8.40208e-09
8.14813e-09
1.03151e-08
1.05231e-08
3.88255e-09
3.69335e-09
4.16446e-09
4.30879e-09
9.82853e-11
5.47301e-08
8.04365e-08
-1.05741e-07
-1.00458e-07
-2.98939e-09
-2.88075e-09
7.59647e-08
7.9818e-08
-1.5334e-09
6.72688e-09
8.03071e-07
7.59267e-07
8.25513e-07
8.22202e-07
3.91586e-07
4.06923e-07
3.30261e-07
3.17598e-07
-1.45097e-07
2.05849e-08
-3.29217e-08
2.72785e-08
5.42431e-07
6.78991e-07
1.43212e-06
2.09671e-06
1.55275e-06
1.31137e-06
1.25066e-06
2.21964e-06
2.00781e-06
2.93733e-07
2.96483e-07
5.24172e-07
6.2918e-07
7.10777e-07
9.32057e-07
-1.20484e-07
6.50321e-08
3.43576e-09
3.64518e-07
3.647e-07
7.98798e-08
1.41553e-07
2.6465e-07
4.33709e-08
2.92018e-07
1.2409e-07
8.24212e-07
7.35557e-07
1.89614e-06
2.02194e-06
1.42306e-06
1.41384e-06
1.46563e-06
1.31612e-06
1.29822e-06
1.13766e-06
2.40512e-07
2.35621e-07
3.12195e-07
3.45173e-07
7.14206e-07
7.04184e-07
7.79107e-07
7.5188e-07
5.12518e-07
5.10811e-07
4.6776e-07
4.41011e-07
3.37002e-07
3.074e-07
-3.32967e-08
-2.64181e-08
7.47813e-08
8.17663e-08
3.776e-08
3.12484e-08
3.78209e-08
2.78996e-08
3.24097e-08
1.7953e-08
2.26956e-08
3.89337e-09
9.0722e-08
7.65652e-08
1.10167e-07
1.14388e-07
1.69405e-07
1.52811e-07
2.55639e-07
2.6404e-07
1.78513e-07
1.82563e-07
1.41391e-07
1.53989e-07
1.37414e-07
1.4008e-07
1.56132e-07
1.90997e-08
1.94157e-08
1.56356e-08
1.61997e-08
1.12964e-08
1.09632e-08
1.19167e-08
1.22667e-08
1.03404e-08
1.00818e-08
7.51558e-09
7.73963e-09
3.95871e-09
3.81947e-09
1.88772e-09
1.85507e-09
9.33106e-09
9.56888e-09
5.35233e-08
1.95883e-07
5.62315e-08
-3.48293e-08
-2.9895e-08
-2.23365e-07
-1.27372e-07
-1.66433e-07
-1.31421e-07
-1.69759e-09
-1.79104e-09
3.83801e-08
3.79672e-08
-2.65921e-09
4.57932e-10
4.46296e-10
-2.5223e-09
-6.90642e-08
-8.67901e-08
8.05267e-07
9.5243e-07
7.26322e-07
7.12128e-07
5.05599e-07
5.13085e-07
4.08298e-07
2.47987e-07
2.10026e-07
2.71784e-07
7.40417e-08
-3.84724e-08
6.08226e-08
1.09961e-08
1.31357e-06
2.2096e-06
1.84935e-06
1.83021e-06
1.7518e-06
1.73326e-06
1.69189e-06
2.38857e-06
2.63069e-06
2.12616e-07
2.14167e-07
2.87818e-07
2.65278e-07
3.48422e-07
3.1974e-07
9.54973e-07
8.53688e-07
2.45208e-07
2.68185e-07
1.97952e-07
7.53821e-08
8.31983e-08
-4.95681e-09
-1.81765e-07
-2.90844e-08
-8.20422e-08
-2.5046e-08
4.21229e-08
1.5587e-07
6.08406e-07
6.53401e-07
1.26444e-06
1.22261e-06
1.70537e-06
1.64074e-06
1.38977e-06
1.55388e-06
1.844e-06
1.76143e-06
1.2516e-06
1.31787e-06
2.68961e-07
2.64173e-07
4.2066e-07
3.7871e-07
5.36326e-07
6.03557e-07
5.70131e-07
5.72658e-07
7.12875e-07
6.52856e-07
4.11411e-07
4.11923e-07
4.39891e-07
4.51838e-07
3.28524e-07
3.45392e-07
-9.74625e-09
-1.43565e-08
-8.82013e-08
-6.18645e-08
8.83697e-08
9.81556e-08
6.02329e-08
6.76184e-08
4.54017e-08
5.28469e-08
4.77958e-08
5.79727e-08
3.80561e-08
2.92274e-08
3.49416e-08
2.16225e-08
2.65868e-08
9.85069e-09
1.04918e-07
1.18717e-07
8.63963e-08
7.37716e-08
1.37458e-07
1.40151e-07
1.24735e-07
1.32272e-07
1.5673e-07
1.42119e-07
1.92197e-07
2.15621e-07
1.814e-07
1.77119e-07
2.96517e-07
3.00222e-07
2.10189e-07
2.14863e-07
1.7835e-07
1.6899e-07
1.54155e-07
1.41389e-07
1.21971e-07
1.12548e-07
1.72706e-08
1.69474e-08
1.67819e-08
1.64876e-08
1.33885e-08
1.37592e-08
1.10833e-08
1.13143e-08
8.42535e-09
8.68555e-09
1.36001e-08
1.33094e-08
7.98691e-09
8.03907e-09
5.16813e-09
4.99258e-09
4.01266e-09
4.15219e-09
1.15087e-09
1.08262e-09
4.85026e-10
3.92635e-10
6.63419e-09
6.48701e-09
4.14965e-09
4.12525e-09
-4.77967e-08
-1.29194e-08
3.82004e-07
2.30941e-07
-5.67862e-08
-5.51184e-08
3.48902e-08
1.15127e-08
-1.6135e-08
1.00112e-08
-1.09975e-07
-9.77112e-08
-1.71954e-09
-1.82006e-09
9.28681e-11
1.55399e-10
2.63332e-08
2.58248e-08
2.65618e-08
2.68774e-08
1.515e-08
1.35029e-08
2.09679e-10
-8.6739e-09
1.19287e-08
-8.97416e-09
6.76357e-07
5.6821e-07
9.28863e-07
1.05408e-06
1.0838e-06
1.18315e-06
6.66283e-07
7.37438e-07
5.569e-07
5.6692e-07
3.86161e-07
4.19147e-07
3.15424e-07
3.0981e-07
-3.9579e-08
-6.52264e-08
1.71566e-07
1.60973e-07
1.14739e-07
8.68188e-08
5.46334e-08
3.5461e-07
2.66992e-07
1.26588e-06
1.19291e-06
1.99335e-06
1.60269e-06
1.56388e-06
1.51339e-06
2.33678e-06
2.58186e-06
1.96847e-07
1.98197e-07
3.29394e-07
3.03524e-07
2.70346e-07
2.72645e-07
7.55375e-07
8.26502e-07
1.05263e-06
1.19248e-06
7.86645e-08
1.31609e-07
-4.56897e-08
1.15316e-07
1.53374e-07
1.48593e-07
2.68893e-07
4.59795e-08
3.70322e-07
3.47595e-07
3.00483e-07
1.20822e-07
6.48374e-08
-3.8186e-08
7.73599e-08
7.37487e-07
6.77813e-07
1.76561e-06
1.62566e-06
1.57996e-06
1.58775e-06
1.6528e-06
1.48006e-06
3.14718e-07
2.26012e-07
3.05259e-07
3.16199e-07
2.78969e-07
5.34797e-07
5.92453e-07
6.24073e-07
5.5604e-07
6.84446e-07
7.89716e-07
6.75339e-07
6.9805e-07
5.57701e-07
5.86655e-07
3.57614e-07
3.65803e-07
4.58359e-07
4.59403e-07
4.10146e-07
3.71664e-07
1.25077e-08
9.2639e-09
-1.39964e-08
-8.90623e-09
-5.5906e-08
-6.61358e-08
-2.3056e-08
-3.02237e-08
7.07368e-08
8.21841e-08
8.35358e-08
9.22507e-08
6.27179e-08
7.09628e-08
5.11214e-08
4.43888e-08
4.78894e-08
5.92675e-08
3.62795e-08
2.42946e-08
3.05704e-08
1.45638e-08
1.1081e-07
1.26418e-07
1.18833e-07
1.23495e-07
1.08397e-07
1.00531e-07
1.98724e-07
1.8502e-07
1.98671e-07
1.76938e-07
2.03904e-07
1.94021e-07
2.45287e-07
2.43922e-07
2.68604e-07
2.09117e-07
2.12294e-07
1.9399e-07
2.1855e-07
1.30007e-07
1.30177e-07
1.5224e-07
1.66218e-07
1.18183e-07
1.28382e-07
5.33096e-08
5.54367e-08
1.7229e-08
1.71792e-08
1.55356e-08
1.52458e-08
1.23671e-08
1.21613e-08
1.31989e-08
1.2766e-08
1.13126e-08
1.16533e-08
1.21973e-08
1.25571e-08
1.02456e-08
9.96743e-09
1.00096e-08
1.01746e-08
7.0493e-09
6.81369e-09
8.33505e-09
8.56316e-09
7.59826e-09
7.82712e-09
5.64589e-09
5.80478e-09
4.25722e-09
4.1101e-09
3.56067e-09
3.6712e-09
1.71382e-09
1.82076e-09
9.3793e-10
8.6851e-10
4.86704e-10
3.99865e-10
4.86494e-10
3.78543e-10
6.43284e-09
6.4154e-09
3.97741e-10
4.4032e-10
2.22452e-10
-2.22347e-09
-5.13686e-09
4.19896e-07
2.62982e-07
4.48631e-07
4.54031e-07
4.02051e-07
4.83354e-07
6.94797e-07
-5.92298e-08
-5.37045e-08
2.32732e-08
4.06812e-08
1.32558e-08
3.30096e-08
-4.30426e-08
-6.86484e-08
-3.01711e-09
-1.57547e-08
-2.31618e-08
-2.32006e-08
2.42033e-10
2.31167e-10
-1.56749e-09
-1.65971e-09
-1.33439e-09
-1.4016e-09
-9.74705e-11
4.92201e-11
4.00216e-08
4.12408e-08
3.91773e-08
3.88036e-08
2.93631e-08
2.94123e-08
2.71314e-08
2.73133e-08
1.12094e-08
1.30665e-08
-4.94732e-09
1.51021e-08
-7.97551e-09
-7.49839e-09
-8.18542e-10
3.92817e-07
4.49641e-07
8.13729e-07
6.09104e-07
9.08558e-07
1.06468e-06
8.2944e-07
7.4258e-07
7.761e-07
8.08868e-07
5.52781e-07
5.80606e-07
3.8555e-07
3.80797e-07
4.66202e-07
5.11943e-07
2.62935e-07
2.72567e-07
-8.67175e-09
-1.46968e-08
1.98182e-07
1.89916e-07
9.28289e-08
1.54268e-07
3.34475e-07
2.36393e-07
1.36062e-06
1.44364e-06
1.2296e-06
1.21299e-06
1.48808e-06
1.32015e-06
2.16095e-06
1.9409e-06
2.30043e-07
2.31771e-07
2.79602e-07
2.5809e-07
4.17209e-07
5.14493e-07
7.66494e-07
6.99679e-07
1.11452e-06
1.21841e-06
2.15739e-07
2.02553e-07
2.35921e-08
-4.39725e-08
-2.66622e-08
-9.82848e-08
1.22223e-07
1.13986e-07
7.10109e-08
5.12352e-08
-2.68678e-08
-1.62847e-08
2.877e-07
2.52503e-07
1.22057e-08
6.42737e-08
1.47027e-06
1.75288e-06
1.34996e-06
1.29822e-06
1.54008e-06
1.37251e-06
1.57171e-06
1.65196e-06
3.66384e-07
3.58792e-07
3.54921e-07
4.72018e-07
5.25648e-07
6.36301e-07
5.68056e-07
8.03747e-07
7.9639e-07
6.22888e-07
6.46634e-07
3.70146e-07
3.70497e-07
3.99756e-07
4.2248e-07
-9.69308e-09
-5.42746e-09
-1.96168e-08
-2.52936e-08
-6.20312e-08
-5.00442e-08
-1.54328e-08
-9.22283e-09
-2.24696e-08
9.35385e-08
1.04568e-07
7.70528e-08
7.08611e-08
4.61213e-08
5.44491e-08
6.1134e-08
4.85458e-08
4.53182e-08
6.51016e-08
1.49301e-07
1.52439e-07
9.45719e-08
8.83654e-08
1.22366e-07
1.15687e-07
1.55076e-07
1.45482e-07
2.00661e-07
2.16146e-07
1.86612e-07
1.78243e-07
1.98529e-07
2.01343e-07
3.30107e-07
3.33606e-07
3.33133e-07
3.29207e-07
2.48333e-07
2.33937e-07
2.30134e-07
1.19745e-07
1.20068e-07
1.59464e-07
1.75201e-07
1.22849e-07
1.33623e-07
1.70179e-08
1.69826e-08
1.69081e-08
1.68597e-08
1.5311e-08
1.54842e-08
1.61904e-08
1.63732e-08
1.75876e-08
1.80327e-08
1.31498e-08
1.35886e-08
1.16522e-08
1.1997e-08
1.11487e-08
1.08419e-08
8.95549e-09
8.66535e-09
1.30129e-08
1.3161e-08
9.75343e-09
9.91597e-09
7.73414e-09
7.49398e-09
6.12298e-09
5.95414e-09
8.46888e-09
8.63106e-09
6.95181e-09
6.76354e-09
8.01117e-09
8.24592e-09
7.22377e-09
7.44847e-09
4.8879e-09
4.74664e-09
5.28068e-09
5.42344e-09
4.30126e-09
4.44589e-09
4.59455e-09
4.70827e-09
1.7425e-09
1.77349e-09
8.84669e-10
9.56687e-10
4.89078e-10
4.03222e-10
9.896e-10
1.08234e-09
4.60186e-09
4.44781e-09
6.46011e-09
6.66167e-09
4.18572e-09
4.17048e-09
3.19927e-09
3.15871e-09
2.80879e-07
2.43932e-07
2.19793e-07
-1.37506e-08
-2.73645e-08
1.92945e-07
8.29891e-08
1.44955e-07
5.61718e-08
-3.25222e-09
-3.69939e-09
3.59622e-07
3.26026e-07
-6.75513e-08
-6.76655e-08
-4.69325e-08
-4.31886e-08
3.55482e-08
9.3483e-09
-2.2621e-07
-4.9406e-08
-1.00941e-07
-6.9337e-08
-2.82473e-08
-2.91461e-08
-2.328e-08
-2.30858e-08
-8.10422e-10
-7.52878e-10
-1.98968e-09
-2.09011e-09
-1.60588e-09
-1.51616e-09
-1.75321e-09
-1.84643e-09
-2.5728e-10
-6.24773e-11
1.64751e-10
1.041e-10
8.27736e-08
8.75267e-08
2.27428e-08
2.30782e-08
3.02432e-08
3.12189e-08
7.06823e-08
7.41449e-08
3.53981e-08
3.55601e-08
2.57941e-08
2.53549e-08
1.36752e-08
1.53153e-08
7.93245e-09
6.97094e-09
2.49723e-09
6.75505e-09
8.38474e-10
-5.99556e-08
8.43561e-07
7.46573e-07
1.20035e-06
1.06731e-06
6.47088e-07
6.19624e-07
5.43822e-07
6.01337e-07
4.1744e-07
4.2281e-07
3.26502e-07
2.96954e-07
2.97319e-07
3.39267e-07
-5.77256e-08
-1.44406e-08
-1.19123e-08
3.24921e-09
1.59946e-08
2.26089e-07
2.01627e-07
9.08989e-08
9.78398e-08
7.78131e-07
4.90944e-07
6.23772e-07
4.80173e-07
9.58997e-07
8.49922e-07
1.42363e-06
1.79881e-06
1.60525e-06
1.35298e-06
1.31663e-06
2.60325e-07
2.42282e-07
2.2067e-07
2.26204e-07
3.12947e-07
3.40354e-07
6.91274e-07
5.9181e-07
5.00857e-07
3.86716e-07
4.81852e-07
2.86822e-07
2.05872e-07
1.51905e-07
1.78019e-07
8.26941e-08
1.48889e-07
-2.04076e-08
1.38173e-07
2.27134e-07
2.07692e-07
1.66136e-07
1.31777e-07
9.14658e-08
8.77103e-08
-7.80778e-09
-7.22598e-09
1.79885e-07
6.42437e-07
5.49732e-07
1.12506e-06
1.13303e-06
1.43715e-06
1.50792e-06
1.27351e-06
1.26886e-06
4.43867e-07
4.54751e-07
3.54684e-07
3.49256e-07
4.67218e-07
5.27755e-07
5.87158e-07
6.39481e-07
5.43882e-07
5.60547e-07
7.12037e-07
7.17338e-07
4.05934e-07
3.95799e-07
1.47694e-09
4.88047e-09
-1.88005e-08
-1.24145e-08
-2.00456e-08
-1.46136e-08
-7.77187e-08
-8.77109e-08
-9.80232e-10
4.21755e-09
-3.68005e-08
-3.34362e-08
7.83276e-08
6.81555e-08
7.90116e-08
8.686e-08
4.77371e-08
6.34399e-08
1.10784e-07
1.11419e-07
9.77138e-08
9.31691e-08
1.34848e-07
1.43365e-07
1.4529e-07
1.325e-07
1.93596e-07
1.98583e-07
1.71077e-07
1.63707e-07
2.21305e-07
2.20237e-07
3.00859e-07
2.9806e-07
2.66822e-07
2.70871e-07
2.71751e-07
2.55423e-07
1.18539e-07
1.16307e-07
1.10342e-07
1.10612e-07
1.39526e-07
1.45659e-07
1.73097e-08
1.73465e-08
1.50154e-08
1.51857e-08
1.57822e-08
1.60764e-08
1.81068e-08
1.83872e-08
1.40729e-08
1.39036e-08
1.77029e-08
1.75653e-08
1.40609e-08
1.36626e-08
1.23634e-08
1.19934e-08
1.20043e-08
1.16384e-08
1.24734e-08
1.28373e-08
9.79962e-09
1.00875e-08
9.90131e-09
9.68406e-09
1.34508e-08
1.32976e-08
1.0193e-08
9.93275e-09
7.22009e-09
6.96399e-09
6.55166e-09
6.30862e-09
7.28123e-09
7.75434e-09
7.95638e-09
8.17446e-09
8.38274e-09
8.28979e-09
6.75837e-09
6.56499e-09
8.20506e-09
8.43886e-09
8.06111e-09
7.86415e-09
5.15333e-09
4.96167e-09
4.8084e-09
4.67144e-09
5.55079e-09
5.70578e-09
5.45792e-09
5.60811e-09
4.47943e-09
4.62433e-09
5.9076e-09
6.08421e-09
5.43799e-09
5.27444e-09
6.23711e-10
6.10254e-10
1.34063e-09
1.3242e-09
1.03334e-09
1.0103e-09
6.12437e-10
5.50842e-10
4.86453e-10
3.96327e-10
7.35884e-10
6.60794e-10
4.60248e-09
4.44903e-09
6.46075e-09
6.39767e-09
5.2195e-09
5.18591e-09
3.88146e-09
3.89778e-09
3.98015e-09
4.00414e-09
2.37101e-09
2.33791e-09
4.39395e-10
4.7029e-10
1.73443e-07
2.03457e-07
1.6994e-08
2.48163e-08
1.65993e-07
1.8277e-07
3.41325e-08
-3.97675e-09
1.26177e-07
3.76448e-08
1.68675e-07
5.87222e-08
6.31474e-08
9.98995e-07
1.14584e-06
-8.09368e-08
-6.71005e-08
-9.87868e-08
-4.01406e-08
-4.5947e-08
-1.25722e-08
-3.28479e-08
2.07335e-07
1.1787e-08
1.30867e-07
2.59e-09
-1.1586e-08
-6.13143e-08
-5.84873e-08
-4.94161e-08
-4.49493e-08
-2.34167e-08
-2.34077e-08
-1.69533e-09
-1.74598e-09
-4.46255e-10
-3.79444e-10
1.69618e-09
1.81501e-09
-9.95811e-10
-1.10455e-09
-1.56382e-09
-1.47814e-09
-2.16753e-10
-1.66544e-10
1.00753e-10
1.57695e-10
6.40166e-08
6.70908e-08
7.22279e-08
7.58939e-08
2.35243e-08
2.32554e-08
2.45544e-08
2.46671e-08
2.49128e-08
2.42724e-08
2.53261e-08
2.49204e-08
3.56972e-08
3.5783e-08
2.8357e-08
2.84115e-08
2.27771e-08
2.33837e-08
1.51797e-08
1.66979e-08
1.15824e-08
9.52615e-09
-1.82172e-09
-4.48447e-09
5.48394e-07
5.12513e-07
6.06306e-07
5.18307e-07
1.0888e-06
1.22731e-06
8.9455e-07
9.89866e-07
5.24396e-07
4.97928e-07
4.58996e-07
4.65058e-07
3.85114e-07
4.18958e-07
3.44664e-07
3.78676e-07
5.51358e-09
4.30533e-08
7.8993e-08
1.31305e-07
1.77878e-07
2.37244e-07
2.30158e-07
1.26606e-07
1.28565e-07
4.83403e-07
4.32292e-07
1.2543e-06
1.0933e-06
1.557e-06
1.77035e-06
1.89597e-07
1.93885e-07
2.44717e-07
2.38407e-07
1.13339e-06
1.24377e-06
6.25781e-07
6.9715e-07
9.10568e-07
7.74093e-07
1.562e-07
1.60811e-07
7.33989e-08
2.40787e-07
1.92613e-07
3.46744e-07
2.90665e-07
1.72634e-07
9.92017e-08
2.03643e-07
2.1422e-07
3.19994e-08
9.68205e-09
-6.03524e-08
-7.03452e-08
2.16965e-07
2.48636e-07
1.42549e-07
1.17418e-07
1.38676e-07
5.63274e-08
-8.9138e-10
4.19325e-08
2.14091e-08
2.4243e-08
1.27929e-06
9.29684e-07
1.01917e-06
8.51113e-07
1.25854e-06
1.2699e-06
1.91283e-06
2.18569e-06
1.87158e-06
1.0124e-06
1.01408e-06
1.25401e-06
1.22383e-06
4.95957e-07
5.07672e-07
3.42339e-07
3.74701e-07
3.87124e-07
4.24413e-07
5.68523e-07
5.07563e-07
6.24715e-07
6.04876e-07
7.92546e-09
1.07943e-08
-1.56369e-09
-5.56278e-09
-7.02163e-09
-2.43753e-09
-4.31004e-08
-3.63911e-08
-6.24959e-08
-9.5767e-08
-7.18294e-08
-7.83196e-08
-6.96601e-08
-3.20147e-08
-4.78907e-08
-1.88633e-08
7.4559e-08
6.53901e-08
1.18526e-07
1.19818e-07
1.00146e-07
1.05187e-07
1.0133e-07
9.42976e-08
1.57508e-07
1.68332e-07
1.34768e-07
1.23429e-07
2.12042e-07
2.17862e-07
2.22522e-07
2.21461e-07
2.71717e-07
2.69509e-07
2.97549e-07
2.79557e-07
1.28761e-07
1.26297e-07
1.56354e-08
1.52019e-08
1.52236e-08
1.50589e-08
1.32237e-08
1.29438e-08
1.53556e-08
1.50661e-08
1.65898e-08
1.63007e-08
1.81986e-08
1.78991e-08
1.12782e-08
1.14705e-08
1.45935e-08
1.42357e-08
1.67546e-08
1.70077e-08
1.48997e-08
1.53014e-08
1.3508e-08
1.39505e-08
1.23045e-08
1.26549e-08
1.23618e-08
1.2741e-08
1.23485e-08
1.27247e-08
1.30914e-08
1.21194e-08
1.06453e-08
1.03473e-08
9.20524e-09
8.93405e-09
7.67404e-09
7.47845e-09
9.69243e-09
9.93797e-09
1.20425e-08
1.21398e-08
1.21196e-08
1.19575e-08
1.1764e-08
1.15776e-08
1.07271e-08
1.09991e-08
8.15381e-09
8.36394e-09
6.77193e-09
6.52578e-09
5.91613e-09
5.68464e-09
7.02313e-09
6.84166e-09
8.15387e-09
7.8159e-09
8.79468e-09
8.61891e-09
7.55117e-09
7.33307e-09
7.63168e-09
7.40284e-09
5.70937e-09
5.48652e-09
4.86744e-09
5.04957e-09
5.52422e-09
5.378e-09
5.13338e-09
5.30651e-09
4.53378e-09
4.39809e-09
4.06545e-09
4.19674e-09
5.69674e-09
5.54095e-09
5.98291e-09
6.14793e-09
4.98029e-09
5.12662e-09
5.61154e-09
2.21562e-09
2.13879e-09
1.25425e-09
1.35754e-09
1.65139e-09
1.74736e-09
9.27477e-10
1.09076e-09
9.20946e-10
9.96119e-10
7.9139e-10
8.54296e-10
5.58302e-10
6.23772e-10
5.08473e-10
5.04259e-10
6.8909e-10
7.74806e-10
4.86352e-10
3.82216e-10
9.3812e-09
9.62126e-09
5.50773e-09
5.51312e-09
4.61793e-09
4.62617e-09
4.69757e-09
4.55159e-09
3.69974e-09
3.72048e-09
4.02508e-09
4.04186e-09
2.73568e-09
2.72011e-09
1.46703e-09
1.47168e-09
7.70797e-11
1.95448e-10
-6.5606e-08
-7.82295e-08
3.96036e-08
4.81624e-08
-2.38987e-08
5.54372e-08
5.34428e-08
3.95756e-08
4.32948e-09
9.47295e-08
-3.67031e-09
3.01101e-07
-1.0954e-08
-1.0566e-08
1.34837e-07
1.26216e-07
8.75176e-07
8.89506e-07
2.86935e-07
3.24142e-07
-7.26276e-08
-7.12918e-08
4.50272e-08
5.58665e-08
-2.15097e-08
-4.83418e-09
2.80776e-08
8.36071e-08
1.47482e-07
4.7595e-08
-1.02829e-08
-4.50464e-08
-6.00804e-08
-1.73107e-08
-4.09067e-08
-9.60015e-08
-2.70398e-08
-2.62511e-08
-3.0163e-08
-3.09526e-08
2.31813e-10
-5.94973e-10
-4.15411e-09
-4.14557e-09
-1.33408e-09
-1.40003e-09
-4.75962e-10
-4.06604e-10
1.69894e-09
1.75734e-09
-8.64772e-10
-7.25349e-10
-1.08004e-09
-9.77838e-10
-1.82e-09
-1.91431e-09
-1.49012e-09
-1.56565e-09
-6.49516e-10
-7.20238e-10
7.34768e-11
1.36588e-10
1.45132e-10
9.85101e-11
3.66312e-10
3.54663e-10
8.56487e-08
9.05419e-08
7.96769e-08
8.40006e-08
2.95783e-08
2.89878e-08
3.03506e-08
2.96316e-08
2.69685e-08
2.27475e-08
2.43702e-08
2.466e-08
2.50978e-08
5.99664e-08
5.75916e-08
2.84793e-08
2.88356e-08
2.94356e-08
2.93887e-08
2.42974e-08
2.4755e-08
2.01167e-08
1.91033e-08
1.19799e-08
1.41143e-08
1.23767e-08
1.41007e-08
6.3504e-09
8.10143e-09
-7.07645e-08
-8.34901e-08
5.81501e-07
5.61603e-07
5.65119e-07
4.77666e-07
9.75081e-07
9.71544e-07
1.08573e-06
1.20207e-06
4.75092e-07
4.50726e-07
6.15041e-07
6.22468e-07
3.61768e-07
3.55588e-07
-7.13857e-08
-8.51119e-08
1.14952e-08
2.10138e-07
1.54581e-06
1.62918e-06
2.09283e-07
2.0444e-07
1.35014e-06
6.36543e-07
5.81529e-07
8.59428e-07
6.55761e-07
1.18497e-07
1.42657e-07
2.19473e-07
3.87819e-07
3.20679e-07
2.88733e-07
1.34197e-07
8.57503e-08
6.77932e-08
-4.06206e-08
-7.8192e-08
-9.23782e-08
2.24595e-07
2.7331e-07
1.18081e-07
1.16995e-07
6.10671e-08
8.7998e-08
1.4914e-08
6.29691e-07
5.19518e-07
4.62476e-07
8.02749e-07
8.10606e-07
8.55629e-07
9.04018e-07
1.04848e-06
9.2011e-07
1.58032e-06
1.58335e-06
1.94461e-06
1.90565e-06
9.01566e-07
8.991e-07
1.09293e-06
1.11988e-06
4.51358e-07
4.77002e-07
3.95899e-07
4.07032e-07
4.77913e-07
4.3135e-07
1.26188e-08
1.59101e-08
2.22529e-08
2.38243e-08
1.31379e-08
7.81069e-09
2.91746e-09
-1.9992e-08
-2.67662e-08
-4.13473e-08
-4.69698e-08
-1.00256e-07
-9.45053e-08
-6.11121e-08
-3.21916e-09
-1.50703e-08
-3.65067e-08
1.50899e-07
1.57314e-07
1.27276e-07
1.29397e-07
8.83121e-08
8.28554e-08
1.70565e-07
1.82802e-07
2.02492e-07
2.01646e-07
2.55428e-07
2.63528e-07
1.88617e-08
1.86145e-08
2.23253e-08
2.16898e-08
1.31203e-08
1.3439e-08
2.32342e-08
2.37181e-08
1.92376e-08
1.89002e-08
1.46652e-08
1.44925e-08
1.62091e-08
1.59279e-08
1.58995e-08
1.5607e-08
1.60104e-08
1.82743e-08
1.85511e-08
1.20485e-08
1.1853e-08
1.19495e-08
1.16651e-08
1.63626e-08
1.66734e-08
1.76553e-08
1.80964e-08
1.69864e-08
1.71612e-08
1.53963e-08
1.57069e-08
1.45569e-08
1.50811e-08
1.44273e-08
1.2686e-08
1.30177e-08
1.27141e-08
1.30975e-08
1.29528e-08
1.3317e-08
1.15765e-08
1.18489e-08
9.23282e-09
9.50603e-09
9.2285e-09
9.50844e-09
8.46553e-09
8.26295e-09
9.83251e-09
9.59046e-09
1.14747e-08
1.12092e-08
1.19446e-08
1.43267e-08
1.41686e-08
9.84046e-09
9.58808e-09
9.5301e-09
9.73207e-09
1.0659e-08
1.08479e-08
7.45039e-09
7.19348e-09
8.43312e-09
8.20307e-09
6.79602e-09
7.01993e-09
6.12567e-09
5.88999e-09
6.14991e-09
6.97156e-09
7.16041e-09
7.79608e-09
7.58589e-09
8.38088e-09
8.15177e-09
7.16144e-09
7.34355e-09
7.77955e-09
7.97328e-09
6.64839e-09
6.86114e-09
5.33484e-09
5.13232e-09
5.35343e-09
5.05591e-09
4.91517e-09
5.83757e-09
6.00172e-09
5.48827e-09
4.59069e-09
4.72484e-09
4.40486e-09
4.53832e-09
4.33577e-09
8.01641e-09
7.90243e-09
6.13688e-09
6.30618e-09
5.62552e-09
5.80618e-09
5.27852e-09
5.44813e-09
3.5737e-09
3.46592e-09
2.08312e-09
2.11775e-09
1.32162e-09
1.10363e-09
1.04292e-09
1.68296e-09
1.78623e-09
1.27681e-09
1.21662e-09
1.10927e-09
1.18394e-09
1.08304e-09
1.05874e-09
8.08783e-10
8.70978e-10
5.67968e-10
6.35998e-10
4.98707e-10
4.95555e-10
9.57208e-10
8.85997e-10
6.74245e-10
7.56116e-10
6.40204e-10
5.45186e-10
8.2869e-09
8.06356e-09
6.76323e-09
6.57678e-09
5.30891e-09
5.32326e-09
5.7969e-09
5.81655e-09
6.28511e-09
6.44977e-09
5.032e-09
5.07082e-09
4.53478e-09
4.49938e-09
4.00572e-09
4.1578e-09
3.73889e-09
3.75442e-09
3.32758e-09
3.28608e-09
2.70017e-09
2.66623e-09
3.62312e-10
3.5734e-10
5.81307e-11
2.31946e-10
2.80262e-10
5.09115e-09
4.90075e-09
6.43144e-07
5.68341e-07
5.70864e-08
1.65477e-07
1.1715e-07
5.71824e-08
2.12532e-08
1.20644e-07
1.57578e-07
4.64153e-08
-6.76704e-09
-1.66373e-07
-4.10581e-09
-4.49702e-09
7.21405e-08
6.71199e-08
3.3219e-07
2.93322e-07
7.31953e-07
7.38237e-07
9.95622e-07
1.10028e-06
6.94456e-07
7.38225e-07
2.22291e-07
1.4685e-07
-1.22956e-08
6.27845e-09
4.3603e-08
6.30177e-08
-5.07507e-08
-4.38619e-08
-3.65287e-08
1.54865e-07
7.75789e-08
3.43815e-08
1.88706e-07
2.32983e-07
3.22979e-08
-5.63665e-11
-2.23473e-08
3.41171e-07
2.78656e-07
2.62191e-07
-4.85076e-08
-4.85475e-08
-4.87408e-08
-2.24058e-08
-2.29112e-08
-2.43431e-09
-2.73421e-09
-8.71255e-09
-8.64112e-09
-2.70814e-09
-2.7669e-09
-8.99424e-10
-9.47403e-10
-1.2985e-09
-1.36627e-09
-5.04347e-10
-4.33557e-10
-7.85058e-10
-7.30814e-10
1.6423e-09
1.58742e-09
-1.93823e-09
-2.05663e-09
-1.0495e-09
-9.49826e-10
-1.19719e-09
-1.10371e-09
-1.8653e-09
-1.96479e-09
-1.29271e-09
-1.21114e-09
-1.37657e-09
-1.45141e-09
-3.64626e-10
-3.96365e-10
4.14463e-13
3.18287e-11
1.29626e-10
1.80693e-10
-1.214e-11
-5.91981e-11
-2.76674e-11
-2.10644e-11
3.42155e-12
3.43904e-11
4.12488e-10
3.44873e-10
7.72794e-08
8.13159e-08
7.25763e-08
6.92471e-08
2.95987e-08
3.02372e-08
2.93997e-08
3.00899e-08
2.9987e-08
3.08047e-08
2.70998e-08
2.66412e-08
2.56608e-08
2.62274e-08
4.89583e-08
4.71419e-08
2.2559e-08
1.97079e-08
3.07886e-08
3.06078e-08
2.81955e-08
2.7985e-08
2.34314e-08
2.39784e-08
1.79342e-08
1.66328e-08
4.60505e-09
1.51598e-09
1.68113e-08
1.82255e-08
8.6294e-09
1.04539e-08
1.02472e-08
1.22192e-08
5.18964e-08
5.07818e-08
6.79844e-07
7.60207e-07
7.88212e-07
5.03638e-07
4.5939e-07
8.79195e-07
8.69099e-07
4.93287e-07
-4.06126e-08
5.55198e-08
5.44541e-08
1.14043e-06
1.06022e-06
1.31724e-06
5.80583e-07
5.39221e-07
2.45554e-07
2.16717e-07
3.77664e-07
3.44988e-07
3.6714e-07
2.24037e-07
4.66006e-08
-8.4715e-08
-9.6368e-08
-5.65601e-09
-3.27808e-08
-1.28705e-07
1.9516e-07
2.2519e-07
5.21246e-08
4.59453e-08
4.56353e-07
3.27985e-07
5.09841e-07
5.93781e-07
4.78825e-07
1.00919e-06
1.21331e-06
9.49468e-07
9.7932e-07
9.35098e-07
8.27724e-07
1.4171e-06
1.42253e-06
1.71481e-06
1.76198e-06
8.72171e-07
8.9224e-07
1.13417e-06
1.13788e-06
4.25444e-07
4.00546e-07
4.70777e-09
7.97325e-10
2.49355e-08
1.88675e-08
-5.08155e-10
-4.42585e-09
-2.66307e-08
-3.43885e-08
-8.31364e-08
-7.62789e-08
8.91602e-09
1.44813e-07
1.39044e-07
1.62432e-07
1.6608e-07
1.07688e-07
1.13497e-07
2.4325e-07
2.37263e-07
1.72685e-08
1.62684e-08
4.51803e-08
4.49634e-08
2.24096e-08
2.19202e-08
1.26458e-08
1.25406e-08
1.4209e-08
1.41995e-08
2.40359e-08
2.4546e-08
1.71627e-08
1.68639e-08
1.85243e-08
1.88738e-08
1.98341e-08
2.01435e-08
1.44307e-08
1.45972e-08
1.51357e-08
1.48425e-08
1.58252e-08
1.56433e-08
1.57204e-08
1.54278e-08
1.84023e-08
1.86743e-08
1.2346e-08
1.21522e-08
1.17557e-08
1.15589e-08
1.48744e-08
1.51694e-08
1.77762e-08
1.81879e-08
1.77194e-08
1.81471e-08
1.73421e-08
1.78378e-08
1.4598e-08
1.43044e-08
1.7456e-08
1.73643e-08
1.47668e-08
1.50951e-08
1.46633e-08
1.41535e-08
1.23311e-08
1.19836e-08
1.23669e-08
1.26009e-08
1.13133e-08
1.16444e-08
9.2383e-09
8.96837e-09
9.51897e-09
9.80374e-09
7.54662e-09
7.35015e-09
8.18148e-09
7.97935e-09
9.71734e-09
9.47941e-09
1.17445e-08
1.18402e-08
1.29309e-08
1.30446e-08
1.3873e-08
1.40313e-08
1.20056e-08
1.17323e-08
1.1588e-08
1.17619e-08
9.99256e-09
9.78544e-09
1.13874e-08
1.11958e-08
9.70517e-09
9.46906e-09
7.91941e-09
8.13277e-09
7.7304e-09
7.95444e-09
7.03641e-09
7.27352e-09
7.24538e-09
6.99394e-09
6.37998e-09
6.61126e-09
6.33554e-09
6.09568e-09
6.61242e-09
6.77862e-09
7.00296e-09
6.81694e-09
7.65642e-09
7.41568e-09
9.39686e-09
9.2471e-09
7.18119e-09
6.96613e-09
7.13562e-09
6.9557e-09
6.37215e-09
6.56628e-09
6.86577e-09
7.08187e-09
5.51585e-09
5.3037e-09
4.71836e-09
4.58018e-09
6.03012e-09
6.1976e-09
4.81713e-09
4.96085e-09
4.77078e-09
4.90314e-09
4.67682e-09
4.50983e-09
5.6248e-09
5.46873e-09
5.43043e-09
5.283e-09
5.82194e-09
5.97093e-09
5.24659e-09
5.53977e-09
5.28256e-09
5.12642e-09
2.12137e-09
2.04723e-09
1.13894e-09
1.08191e-09
3.5778e-10
3.64218e-10
1.61632e-09
1.72829e-09
1.63196e-09
1.66152e-09
1.48809e-09
1.58091e-09
1.37274e-09
1.44824e-09
1.25385e-09
1.31972e-09
1.14153e-09
1.22041e-09
9.7728e-10
9.02675e-10
4.94561e-10
4.12461e-10
5.76358e-10
6.48248e-10
9.45973e-10
1.03286e-09
7.02707e-10
7.91026e-10
4.87994e-10
3.72712e-10
4.92217e-10
3.69729e-10
8.86171e-09
8.88253e-09
8.1022e-09
8.32347e-09
6.64301e-09
6.83136e-09
5.33868e-09
5.34874e-09
6.23986e-09
6.24635e-09
6.3397e-09
6.50373e-09
4.87444e-09
4.90496e-09
4.9457e-09
5.09507e-09
4.24e-09
4.38734e-09
4.45601e-09
4.40643e-09
3.86161e-09
3.83814e-09
3.14253e-09
3.10835e-09
2.53473e-09
2.55963e-09
1.54348e-09
1.64968e-09
1.95483e-09
1.94888e-09
7.59665e-10
7.61552e-10
4.15037e-10
4.75588e-09
2.47882e-09
-1.19092e-07
-1.26173e-07
5.30458e-07
4.65223e-07
-5.04401e-08
-7.86033e-08
1.74501e-07
1.2169e-07
3.67325e-08
9.64247e-08
1.92818e-07
2.26711e-07
2.37317e-07
2.33963e-07
7.17747e-08
1.21303e-07
2.43327e-07
3.01445e-07
-6.41126e-08
-5.96867e-08
1.12462e-08
1.49497e-08
4.70116e-08
6.61915e-08
1.29003e-07
1.1363e-07
3.15849e-07
3.56454e-07
6.56402e-07
6.57548e-07
6.74324e-07
7.02498e-07
1.00938e-06
1.11233e-06
6.65802e-07
6.28882e-07
1.10075e-06
1.0434e-06
2.4952e-07
1.85815e-07
2.80759e-08
4.69464e-09
-4.82687e-09
5.25373e-08
-2.72819e-08
-8.54521e-09
3.3962e-08
7.9791e-08
1.06881e-07
1.50097e-07
1.95917e-07
1.7244e-07
4.68496e-08
3.74962e-09
-7.5086e-08
-1.34603e-07
-6.39536e-08
-2.08309e-08
-1.77743e-07
2.83472e-08
3.46033e-08
-4.20714e-08
-4.51811e-08
-4.10119e-08