/*--------------------------------*- C++ -*----------------------------------*\
  =========                 |
  \\      /  F ield         | OpenFOAM: The Open Source CFD Toolbox
   \\    /   O peration     | Website:  https://openfoam.org
    \\  /    A nd           | Version:  7
     \\/     M anipulation  |
\*---------------------------------------------------------------------------*/
FoamFile
{
    version     2.0;
    format      ascii;
    class       volScalarField;
    location    "0.13";
    object      p;
}
// * * * * * * * * * * * * * * * * * * * * * * * * * * * * * * * * * * * * * //

dimensions      [0 2 -2 0 0 0 0];

internalField   nonuniform List<scalar> 
238806
(
6.5803e-07
6.54149e-07
-7.1263e-08
8.74378e-08
-3.41267e-10
5.90662e-07
5.98854e-07
6.84506e-07
7.57559e-07
1.38175e-07
1.60313e-07
2.2537e-07
6.64457e-08
6.2334e-08
-1.04221e-07
-1.1927e-07
1.12106e-07
7.16023e-08
2.1189e-06
2.13591e-06
8.49275e-08
7.50371e-08
-1.02855e-07
-7.06146e-08
-4.19222e-08
7.36145e-08
1.61874e-08
6.81502e-08
-2.33757e-08
-1.13342e-07
1.88765e-06
2.09664e-06
4.24086e-08
6.39601e-08
1.2673e-07
1.41438e-07
3.03204e-10
2.69658e-10
1.14961e-07
2.42581e-07
1.86859e-07
-3.33199e-08
2.34535e-06
2.5793e-06
1.90746e-06
1.88837e-06
-5.31299e-08
-3.78169e-08
8.58161e-08
1.0726e-07
2.6036e-07
2.709e-07
7.361e-08
6.89273e-08
-1.10724e-10
-1.1282e-10
1.48662e-07
4.20999e-08
1.35267e-07
2.11744e-07
1.54715e-07
3.08585e-07
1.8437e-07
2.51539e-07
2.92819e-07
1.70065e-06
1.70217e-06
8.63219e-07
7.7385e-07
4.3032e-07
3.82277e-07
5.7914e-08
3.90248e-08
1.04252e-07
8.28532e-08
1.95859e-07
1.81589e-07
1.26365e-07
1.40871e-07
7.53799e-10
7.59345e-10
5.93525e-08
8.79611e-08
1.02414e-06
1.08119e-06
3.74212e-07
3.34409e-07
2.18679e-08
-5.68562e-08
6.03234e-08
2.30027e-08
3.09313e-07
1.96681e-07
1.94966e-06
1.89759e-06
2.47402e-07
2.74978e-07
1.41714e-07
1.06273e-07
-2.0085e-08
1.67913e-06
8.72547e-07
8.22726e-07
7.36792e-07
7.39583e-07
2.99036e-08
2.34806e-08
8.97702e-08
7.26591e-08
6.13588e-08
4.03157e-08
1.88112e-07
2.10372e-07
2.41509e-07
2.3154e-07
6.98705e-08
7.74049e-08
2.4974e-10
2.53513e-10
1.59536e-10
-1.34419e-07
-1.28692e-07
8.45584e-07
7.97411e-07
6.59497e-07
6.68057e-07
-1.29528e-07
-1.50862e-07
-5.44264e-09
-2.73876e-09
2.52537e-07
-1.20417e-08
4.09802e-08
-4.63894e-08
1.12259e-07
2.59201e-07
1.79167e-06
2.01083e-06
-2.4945e-07
-7.9333e-08
-1.31239e-07
-8.13638e-08
1.80151e-07
1.23993e-06
9.94171e-07
1.11019e-06
1.04983e-06
7.3295e-07
7.75517e-07
5.14498e-07
4.79447e-07
3.24219e-07
3.03774e-07
1.96919e-08
1.09574e-08
7.02018e-08
5.81887e-08
5.545e-08
3.84799e-08
7.71814e-08
6.84998e-08
1.76247e-07
1.64759e-07
2.70024e-07
2.59426e-07
1.22547e-07
1.37004e-07
1.00426e-09
9.9523e-10
3.00621e-10
2.68277e-10
5.41218e-08
7.87669e-08
-5.27444e-08
-4.12921e-08
-2.28543e-08
9.52578e-07
8.98497e-07
2.92138e-07
2.78999e-07
-1.15499e-07
-1.4133e-07
-7.28206e-08
6.47226e-08
-1.8316e-08
3.50097e-08
9.96998e-07
9.12469e-07
2.17278e-06
2.43289e-06
2.32677e-06
2.56606e-06
9.76327e-07
8.1368e-07
1.38238e-07
-2.17122e-09
1.44895e-07
-4.76719e-08
-6.48377e-08
-1.75793e-10
-7.13064e-08
2.03144e-06
2.08295e-06
1.10628e-06
1.04623e-06
9.7453e-07
8.63688e-07
3.2684e-07
2.91578e-07
4.26388e-07
4.58783e-07
-6.15112e-08
-6.81511e-08
3.09633e-09
-4.39262e-09
8.55821e-09
2.18235e-08
1.25397e-08
2.68617e-08
7.72566e-08
9.65933e-08
1.87508e-07
1.70181e-07
2.07054e-07
2.43717e-07
2.33737e-07
2.4163e-07
1.25483e-07
1.4014e-07
2.5374e-09
2.75113e-09
5.43809e-10
5.59654e-10
1.96854e-10
1.75881e-10
2.66349e-10
2.63247e-10
3.5019e-07
4.02143e-07
3.43863e-08
1.00961e-07
-1.31657e-07
-1.41873e-07
-6.09616e-09
-5.35825e-09
7.46617e-07
7.03135e-07
3.47447e-07
3.64338e-07
2.88923e-07
2.63007e-07
1.36533e-07
1.48311e-07
9.44419e-10
4.26774e-09
4.7318e-08
1.08262e-07
1.85953e-06
2.20155e-06
2.07927e-06
2.35519e-06
1.88336e-06
2.09983e-06
1.79538e-07
1.81504e-07
8.12434e-07
9.05159e-07
1.84806e-07
2.1155e-07
-1.71107e-08
-3.34148e-08
2.38695e-07
-5.86078e-08
-3.43461e-09
1.74944e-07
1.22708e-07
1.84803e-06
1.78599e-06
1.40607e-06
1.32917e-06
9.31106e-07
9.8506e-07
5.72085e-07
6.11675e-07
5.75602e-07
5.79854e-07
4.44044e-07
4.29319e-07
-1.66622e-08
-1.3635e-08
-4.6356e-08
-5.59467e-08
3.94703e-09
-2.88509e-09
-5.03206e-10
-1.04825e-08
2.17048e-08
4.97239e-09
2.05664e-08
-1.95038e-10
5.19506e-08
3.66654e-08
6.68651e-08
6.79123e-08
1.3583e-07
1.17096e-07
1.92509e-07
1.85685e-07
2.17808e-07
1.98975e-07
7.25248e-08
7.43874e-08
1.0985e-07
1.1257e-07
1.02968e-07
9.29258e-08
5.71998e-10
5.34875e-10
1.73255e-09
1.85847e-09
7.5071e-10
7.06823e-10
7.23377e-10
7.19924e-10
1.21083e-10
1.13337e-10
2.67596e-10
2.7071e-10
2.53052e-10
4.97638e-08
7.55082e-08
-1.09421e-07
-1.0575e-07
-1.55114e-10
-1.55984e-10
3.12395e-08
3.39379e-08
-3.68926e-08
-2.87406e-08
6.99414e-07
6.54738e-07
7.32456e-07
7.2869e-07
3.101e-07
3.25461e-07
2.5206e-07
2.40445e-07
-2.32011e-07
-6.95837e-08
-1.17538e-07
-6.366e-08
4.29851e-07
5.65676e-07
1.31464e-06
1.98919e-06
1.45475e-06
1.21094e-06
1.14871e-06
2.12237e-06
1.90949e-06
2.20173e-07
2.22843e-07
4.19264e-07
5.26966e-07
5.96879e-07
8.23018e-07
-2.24027e-07
-3.88661e-08
-8.56861e-08
3.00395e-07
3.02908e-07
2.00047e-08
8.15584e-08
1.9813e-07
-2.42354e-08
2.27651e-07
5.88204e-08
7.56692e-07
6.67155e-07
1.82317e-06
1.95067e-06
1.35624e-06
1.34671e-06
1.39319e-06
1.24179e-06
1.22593e-06
1.06314e-06
1.89388e-07
1.81528e-07
2.55874e-07
2.87213e-07
6.52624e-07
6.42749e-07
7.15088e-07
6.8709e-07
4.54616e-07
4.52577e-07
4.07954e-07
3.80507e-07
2.79323e-07
2.51665e-07
-6.36902e-08
-5.69988e-08
3.91703e-08
4.5994e-08
4.27251e-09
-1.88377e-09
1.45346e-09
-7.81026e-09
-8.08281e-09
-2.15609e-08
-2.21484e-08
-3.97157e-08
4.90737e-08
3.53678e-08
7.3976e-08
7.79548e-08
1.23792e-07
1.07454e-07
2.07279e-07
2.15577e-07
1.34703e-07
1.365e-07
1.02258e-07
1.13587e-07
9.87156e-08
1.01186e-07
1.14102e-07
5.72318e-10
5.38464e-10
2.57731e-09
2.79466e-09
1.39561e-09
1.30467e-09
1.27688e-09
1.3619e-09
5.51609e-10
5.3109e-10
3.42277e-10
3.75266e-10
1.36708e-10
1.22903e-10
2.19208e-10
2.14739e-10
5.45665e-10
5.61612e-10
3.59674e-08
1.80041e-07
3.83195e-08
-3.02844e-08
-2.43123e-08
-2.09672e-07
-1.27279e-07
-1.56841e-07
-1.29908e-07
-1.03694e-10
-1.08601e-10
4.80944e-10
6.90144e-10
-3.78721e-08
-3.50038e-08
-3.37871e-08
-3.58285e-08
-1.23195e-07
-1.41146e-07
6.9488e-07
8.45182e-07
6.34343e-07
6.2024e-07
4.20588e-07
4.28156e-07
3.24783e-07
1.63439e-07
1.32294e-07
1.97247e-07
-7.26402e-09
-1.17135e-07
-2.57527e-08
-7.77838e-08
1.19946e-06
2.11277e-06
1.74322e-06
1.72784e-06
1.64749e-06
1.63287e-06
1.59047e-06
2.29097e-06
2.53433e-06
1.47037e-07
1.48532e-07
2.14354e-07
1.93818e-07
2.70914e-07
2.44189e-07
8.49788e-07
7.49688e-07
1.53727e-07
1.75317e-07
8.77418e-08
1.91098e-08
2.88462e-08
-5.52943e-08
-2.38347e-07
-8.69661e-08
-1.38085e-07
-8.31318e-08
-1.59905e-08
9.22912e-08
5.43216e-07
5.86351e-07
1.19502e-06
1.15295e-06
1.63614e-06
1.57057e-06
1.32208e-06
1.48561e-06
1.77411e-06
1.6904e-06
1.18128e-06
1.24864e-06
2.14396e-07
2.12878e-07
3.63007e-07
3.22716e-07
4.77479e-07
5.43333e-07
5.10462e-07
5.13367e-07
6.4707e-07
5.85504e-07
3.56211e-07
3.56953e-07
3.82325e-07
3.94728e-07
2.73294e-07
2.90708e-07
-4.02451e-08
-4.47278e-08
-1.20886e-07
-9.8275e-08
4.97989e-08
5.9317e-08
2.50858e-08
3.22133e-08
1.08995e-08
1.79964e-08
1.08738e-08
2.05449e-08
2.48556e-09
-5.75482e-09
-4.3401e-09
-1.6768e-08
-1.66236e-08
-3.22656e-08
6.28653e-08
7.63339e-08
4.59431e-08
3.37618e-08
9.83809e-08
1.00995e-07
8.52597e-08
9.26027e-08
1.12463e-07
9.81129e-08
1.42448e-07
1.65638e-07
1.38455e-07
1.34328e-07
2.46187e-07
2.49974e-07
1.61483e-07
1.69624e-07
1.33363e-07
1.25596e-07
1.13796e-07
1.02354e-07
8.41004e-08
7.59647e-08
1.03277e-09
1.02588e-09
5.28148e-10
5.66716e-10
1.75672e-09
1.87786e-09
9.48396e-10
9.42003e-10
7.24969e-10
7.69828e-10
7.08051e-10
6.96929e-10
3.88615e-10
3.49291e-10
1.99223e-10
2.21084e-10
1.32678e-10
1.46216e-10
1.74912e-10
1.79857e-10
3.09711e-10
2.74114e-10
3.808e-10
3.27761e-10
2.82637e-10
2.79474e-10
-6.34759e-08
-2.76258e-08
3.61313e-07
2.09417e-07
-4.88103e-08
-4.59702e-08
2.85207e-08
5.97412e-09
-2.51243e-08
-8.19993e-10
-1.10145e-07
-1.00382e-07
-8.70057e-11
-8.93757e-11
-3.09382e-11
-2.93228e-12
-3.43018e-09
-3.85804e-09
-6.79322e-09
-6.00722e-09
-1.77323e-08
-1.96858e-08
-3.49586e-08
-4.36805e-08
-2.19869e-08
-4.15711e-08
5.73617e-07
4.63343e-07
8.24644e-07
9.49089e-07
9.84886e-07
1.0829e-06
5.761e-07
6.4567e-07
4.70277e-07
4.80433e-07
3.00306e-07
3.30691e-07
2.31965e-07
2.30959e-07
-1.03999e-07
-1.30428e-07
9.31385e-08
8.51329e-08
3.22502e-08
7.22422e-09
-2.39973e-08
2.46543e-07
1.56474e-07
1.16202e-06
1.08737e-06
1.89032e-06
1.49497e-06
1.46373e-06
1.41179e-06
2.2379e-06
2.48433e-06
1.33281e-07
1.34587e-07
2.52111e-07
2.28188e-07
1.98798e-07
2.01034e-07
6.56113e-07
7.25273e-07
9.46364e-07
1.08624e-06
-1.63023e-08
2.91397e-08
-1.39298e-07
7.02641e-09
9.6794e-08
9.36203e-08
2.05851e-07
-2.26478e-08
3.06027e-07
2.88203e-07
2.42409e-07
6.25594e-08
6.69705e-09
-9.47914e-08
9.53542e-09
6.71341e-07
6.13351e-07
1.6941e-06
1.55239e-06
1.51233e-06
1.52055e-06
1.58033e-06
1.4054e-06
2.58014e-07
1.74643e-07
2.5445e-07
2.61809e-07
2.24197e-07
4.72615e-07
5.28889e-07
5.63834e-07
4.97145e-07
6.23039e-07
7.27618e-07
6.11876e-07
6.35268e-07
4.87616e-07
5.2199e-07
3.03402e-07
3.11942e-07
4.01643e-07
4.02952e-07
3.48917e-07
3.12178e-07
-2.11623e-08
-2.49389e-08
-4.5531e-08
-4.03852e-08
-8.44937e-08
-9.42481e-08
-5.85912e-08
-6.65935e-08
3.18138e-08
4.28568e-08
4.60035e-08
5.4485e-08
2.67001e-08
3.46449e-08
1.70368e-08
1.05889e-08
9.9788e-09
2.08088e-08
-1.93873e-09
-1.31067e-08
-1.11608e-08
-2.61476e-08
6.74717e-08
8.27417e-08
8.13769e-08
8.57912e-08
7.02829e-08
6.25803e-08
1.52647e-07
1.39159e-07
1.50212e-07
1.28662e-07
1.58669e-07
1.49008e-07
1.98211e-07
1.96857e-07
2.22835e-07
1.66089e-07
1.6196e-07
1.50181e-07
1.74379e-07
9.22797e-08
9.23116e-08
1.11277e-07
1.23818e-07
8.1266e-08
9.01697e-08
2.04735e-08
2.18621e-08
1.0301e-09
1.02912e-09
6.19469e-10
6.37041e-10
1.01929e-09
1.04114e-09
1.98691e-09
1.84388e-09
1.34602e-09
1.44089e-09
1.27884e-09
1.36658e-09
5.61267e-10
5.20862e-10
5.34239e-10
5.37084e-10
4.56398e-10
4.43344e-10
4.19524e-10
4.43863e-10
3.87818e-10
4.1663e-10
2.22031e-10
2.34626e-10
1.70361e-10
1.5484e-10
1.5819e-10
1.59441e-10
2.1123e-10
2.09954e-10
1.89882e-10
1.95137e-10
3.07074e-10
2.7207e-10
3.1084e-10
2.76483e-10
4.12716e-10
3.85071e-10
2.5114e-10
1.25838e-10
2.24838e-10
-1.43265e-08
-1.82994e-08
3.98993e-07
2.42661e-07
4.31512e-07
4.36598e-07
3.85959e-07
4.47673e-07
6.58758e-07
-5.47956e-08
-4.8544e-08
2.23819e-08
4.01996e-08
9.41621e-09
2.84635e-08
-6.54137e-08
-9.51011e-08
-2.72632e-08
-4.15516e-08
7.36969e-09
6.03322e-09
-4.15176e-11
-3.83758e-11
-9.54051e-11
-9.80007e-11
-1.2518e-10
-1.27592e-10
-6.51833e-11
5.92325e-12
7.90439e-09
8.53136e-09
-2.09554e-11
2.63734e-10
-4.33026e-09
-3.78213e-09
-5.27504e-09
-4.61231e-09
-2.31016e-08
-2.09071e-08
-3.89816e-08
-2.02203e-08
-4.36985e-08
-4.12816e-08
-3.54586e-08
2.97872e-07
3.52679e-07
7.07042e-07
4.98394e-07
8.1434e-07
9.68149e-07
7.3277e-07
6.4585e-07
6.80975e-07
7.15183e-07
4.63327e-07
4.91664e-07
3.06046e-07
3.0127e-07
3.75627e-07
4.21906e-07
1.82001e-07
1.88223e-07
-7.25161e-08
-7.97738e-08
1.18671e-07
1.13421e-07
5.19481e-09
7.02457e-08
2.28527e-07
1.28025e-07
1.25519e-06
1.3402e-06
1.11754e-06
1.09996e-06
1.38828e-06
1.22038e-06
2.06233e-06
1.84132e-06
1.62445e-07
1.64116e-07
2.06273e-07
1.86782e-07
3.1593e-07
4.16712e-07
6.63923e-07
5.99209e-07
1.00936e-06
1.11199e-06
1.1187e-07
9.71297e-08
-8.12126e-08
-9.81195e-08
-7.85087e-08
-1.50455e-07
7.09487e-08
6.39288e-08
2.06473e-08
1.16728e-09
-8.08502e-08
-7.13207e-08
2.25189e-07
1.867e-07
-5.11022e-08
1.11196e-09
1.39514e-06
1.67814e-06
1.28156e-06
1.22911e-06
1.4686e-06
1.299e-06
1.50071e-06
1.58212e-06
3.13116e-07
3.05678e-07
3.01285e-07
4.12982e-07
4.6515e-07
5.75935e-07
5.09008e-07
7.40791e-07
7.32977e-07
5.58202e-07
5.82403e-07
3.16554e-07
3.17098e-07
3.40982e-07
3.64342e-07
-4.05428e-08
-3.6297e-08
-4.98226e-08
-5.52686e-08
-9.18952e-08
-8.01008e-08
-5.35885e-08
-4.63175e-08
-6.60784e-08
5.38589e-08
6.45817e-08
4.22247e-08
3.61596e-08
1.08368e-08
1.87649e-08
2.16371e-08
9.65181e-09
1.21987e-09
2.03745e-08
1.09028e-07
1.12047e-07
5.86507e-08
5.24959e-08
8.39015e-08
7.74154e-08
1.12869e-07
1.03479e-07
1.534e-07
1.68685e-07
1.42707e-07
1.34538e-07
1.54381e-07
1.57002e-07
2.78383e-07
2.81813e-07
2.81194e-07
2.7705e-07
1.97958e-07
1.83551e-07
1.81806e-07
8.3341e-08
8.34957e-08
1.1822e-07
1.3252e-07
8.56658e-08
9.51354e-08
1.03608e-09
1.03028e-09
1.0233e-09
1.02232e-09
6.58127e-10
6.65665e-10
5.97063e-10
6.03879e-10
1.78278e-09
1.88458e-09
1.91255e-09
2.06248e-09
1.38223e-09
1.47816e-09
1.00656e-09
9.50167e-10
8.18522e-10
7.97591e-10
6.70154e-10
6.83532e-10
5.11723e-10
5.1562e-10
5.48559e-10
5.36399e-10
2.26792e-10
2.16564e-10
3.91558e-10
4.01442e-10
3.11675e-10
2.90743e-10
4.19168e-10
4.46941e-10
3.76816e-10
4.03607e-10
1.65187e-10
1.52482e-10
2.13142e-10
2.19119e-10
1.6412e-10
1.78076e-10
1.36853e-10
1.47118e-10
2.1593e-10
2.20354e-10
1.99352e-10
1.94277e-10
3.05474e-10
2.70972e-10
2.43685e-10
2.39956e-10
3.41455e-10
3.34805e-10
3.86126e-10
3.94233e-10
2.8969e-10
2.87341e-10
2.48891e-10
2.44397e-10
2.66059e-07
2.2578e-07
2.05464e-07
-2.82401e-08
-4.15357e-08
1.74455e-07
6.44542e-08
1.25373e-07
3.41378e-08
3.72439e-09
3.29029e-09
3.37383e-07
3.06243e-07
-5.69698e-08
-5.61936e-08
-4.07609e-08
-3.59443e-08
2.70788e-08
1.67832e-09
-2.40945e-07
-7.2424e-08
-1.19503e-07
-9.08545e-08
7.46124e-09
8.16872e-09
4.67523e-09
4.91313e-09
-3.53384e-10
-3.65237e-10
-9.36693e-11
-9.48671e-11
-9.98638e-11
-9.70241e-11
-1.01171e-10
-1.04434e-10
-1.12595e-10
-4.86296e-11
-2.07334e-11
-2.72076e-11
3.79328e-08
4.15574e-08
8.12326e-10
9.85593e-10
8.64644e-10
1.77608e-09
2.86655e-08
3.13652e-08
-1.60138e-09
-2.04244e-09
-6.93608e-09
-7.83559e-09
-2.1098e-08
-1.91186e-08
-2.63171e-08
-2.78379e-08
-3.3213e-08
-2.87221e-08
-3.44799e-08
-1.12879e-07
7.40927e-07
6.45301e-07
1.10156e-06
9.70087e-07
5.56449e-07
5.28489e-07
4.57001e-07
5.12837e-07
3.3601e-07
3.41442e-07
2.41419e-07
2.05643e-07
2.14461e-07
2.57289e-07
-1.16938e-07
-7.65492e-08
-7.01812e-08
-6.60149e-08
-5.2409e-08
1.37837e-07
1.15258e-07
1.49763e-08
2.45258e-08
6.7036e-07
3.79133e-07
5.1605e-07
3.70989e-07
8.48238e-07
7.36535e-07
1.31585e-06
1.699e-06
1.50412e-06
1.25077e-06
1.21382e-06
1.83134e-07
1.67459e-07
1.53279e-07
1.58699e-07
2.37483e-07
2.62942e-07
5.86888e-07
4.85011e-07
3.99616e-07
2.8549e-07
3.82925e-07
1.87212e-07
9.97709e-08
4.9871e-08
7.88313e-08
-4.51668e-09
5.41503e-08
-1.12766e-07
8.30681e-08
1.77249e-07
1.552e-07
1.14923e-07
8.10264e-08
4.04298e-08
3.78583e-08
-6.03202e-08
-5.88387e-08
1.16725e-07
5.68987e-07
4.749e-07
1.0594e-06
1.06755e-06
1.36705e-06
1.43884e-06
1.20729e-06
1.20239e-06
3.8778e-07
3.98513e-07
3.01879e-07
2.96457e-07
4.04351e-07
4.63543e-07
5.25347e-07
5.7612e-07
4.83204e-07
5.0043e-07
6.498e-07
6.5551e-07
3.50396e-07
3.39819e-07
-3.05282e-08
-2.69027e-08
-5.1737e-08
-4.50763e-08
-5.07523e-08
-4.54212e-08
-1.05097e-07
-1.14407e-07
-4.05345e-08
-3.41819e-08
-7.77647e-08
-7.54951e-08
4.00836e-08
3.02929e-08
4.24614e-08
5.01067e-08
6.46414e-09
2.15142e-08
7.53654e-08
7.59917e-08
6.30508e-08
5.83996e-08
9.41402e-08
1.0245e-07
1.02305e-07
8.97825e-08
1.49491e-07
1.54334e-07
1.28481e-07
1.21302e-07
1.75762e-07
1.75129e-07
2.5069e-07
2.47962e-07
2.18186e-07
2.22302e-07
2.19906e-07
2.03219e-07
8.23059e-08
8.02656e-08
7.5334e-08
7.54046e-08
9.99527e-08
1.05815e-07
1.03767e-09
1.04446e-09
6.68376e-10
6.76501e-10
6.50242e-10
6.29422e-10
2.8386e-10
1.99995e-10
8.91375e-10
9.34123e-10
2.33817e-09
2.42724e-09
2.2274e-09
2.14358e-09
1.7145e-09
1.5994e-09
1.54341e-09
1.49348e-09
1.28445e-09
1.37144e-09
9.12458e-10
9.69295e-10
4.88634e-10
4.81406e-10
6.93979e-10
6.80284e-10
6.55753e-10
6.27023e-10
5.37592e-10
5.2283e-10
4.43466e-10
4.30496e-10
4.69211e-10
3.39467e-10
3.53278e-10
3.62663e-10
3.84121e-10
3.39912e-10
3.00018e-10
2.78867e-10
4.31139e-10
4.5677e-10
4.44393e-10
4.34029e-10
2.50779e-10
2.48692e-10
2.27502e-10
2.15335e-10
1.95861e-10
2.08956e-10
2.16156e-10
2.25387e-10
1.70294e-10
1.84233e-10
2.14792e-10
2.26395e-10
1.78927e-10
1.7318e-10
8.51399e-11
9.67595e-11
1.65929e-10
1.56265e-10
1.89884e-10
1.8507e-10
2.41089e-10
2.47108e-10
3.08688e-10
2.73174e-10
2.45325e-10
2.51331e-10
3.40065e-10
3.33592e-10
3.40315e-10
3.32303e-10
3.12032e-10
3.08066e-10
2.80223e-10
2.82776e-10
2.76272e-10
2.79241e-10
2.44473e-10
2.41433e-10
2.09099e-10
1.87682e-10
1.57796e-07
1.86661e-07
1.32465e-09
9.93576e-09
1.46571e-07
1.64811e-07
1.64396e-08
-2.14943e-08
1.03619e-07
1.64272e-08
1.48804e-07
6.01488e-08
6.40312e-08
9.69932e-07
1.1156e-06
-7.15127e-08
-5.96636e-08
-8.98959e-08
-3.66112e-08
-4.33863e-08
-1.90926e-08
-3.83851e-08
1.69951e-07
-1.47504e-08
1.0278e-07
-2.52901e-08
-3.63567e-08
-8.61307e-08
-7.99702e-08
-1.81817e-08
-1.28609e-08
5.76167e-09
7.06782e-09
-1.63685e-10
-1.66949e-10
-3.42114e-10
-3.08193e-10
2.0779e-11
2.79957e-11
-7.17445e-11
-7.47743e-11
-1.07373e-10
-1.0464e-10
-8.82831e-11
-6.96487e-11
-2.56785e-11
-1.89049e-11
2.45386e-08
2.68366e-08
2.94843e-08
3.22218e-08
9.94544e-10
9.32813e-10
-1.51445e-09
-1.80115e-09
-3.00617e-09
-3.78022e-09
-4.27807e-09
-4.60212e-09
-2.49973e-09
-3.0445e-09
-4.17959e-09
-3.62961e-09
-8.9527e-09
-7.93485e-09
-1.9859e-08
-1.79821e-08
-2.19175e-08
-2.42972e-08
-3.6728e-08
-3.90366e-08
4.52847e-07
4.19685e-07
5.05545e-07
4.15786e-07
9.89214e-07
1.12693e-06
7.99262e-07
8.92223e-07
4.37301e-07
4.10469e-07
3.75743e-07
3.81858e-07
2.93745e-07
3.27829e-07
2.60656e-07
2.94936e-07
-6.38226e-08
-2.78671e-08
1.27754e-08
4.31298e-08
8.842e-08
1.52045e-07
1.48635e-07
4.84602e-08
5.36805e-08
3.77209e-07
3.2835e-07
1.14648e-06
9.85554e-07
1.45498e-06
1.67021e-06
1.26161e-07
1.30392e-07
1.75229e-07
1.69057e-07
1.03442e-06
1.14322e-06
5.3e-07
6.00158e-07
8.04246e-07
6.6815e-07
6.64763e-08
6.94117e-08
-1.95115e-08
1.47518e-07
9.97504e-08
2.48639e-07
1.88456e-07
7.82462e-08
3.73722e-09
1.12009e-07
1.07362e-07
-6.0371e-08
-8.71471e-08
-8.7686e-08
-9.69269e-08
1.62786e-07
1.94005e-07
9.07898e-08
6.44109e-08
8.50742e-08
7.1198e-09
-5.19674e-08
-8.09458e-09
-3.41117e-08
-2.91441e-08
1.21023e-06
8.54763e-07
9.47503e-07
7.77754e-07
1.19198e-06
1.20362e-06
1.845e-06
2.119e-06
1.80251e-06
9.47481e-07
9.49425e-07
1.18707e-06
1.15616e-06
4.38451e-07
4.50004e-07
2.87259e-07
3.1987e-07
3.27668e-07
3.63164e-07
5.08203e-07
4.48671e-07
5.63197e-07
5.42724e-07
-2.46817e-08
-2.1479e-08
-3.24106e-08
-3.61176e-08
-3.94573e-08
-3.46588e-08
-7.73831e-08
-7.00897e-08
-9.56455e-08
-1.2544e-07
-1.0376e-07
-1.11151e-07
-1.08848e-07
-7.25259e-08
-8.7686e-08
-5.84258e-08
3.73164e-08
2.84822e-08
8.18213e-08
8.30946e-08
6.42082e-08
6.91809e-08
6.43377e-08
5.74117e-08
1.14256e-07
1.24867e-07
9.3025e-08
8.19492e-08
1.66603e-07
1.72292e-07
1.76867e-07
1.75821e-07
2.23161e-07
2.2096e-07
2.43996e-07
2.25594e-07
9.11876e-08
8.8919e-08
2.82683e-09
2.71694e-09
7.1607e-10
6.99493e-10
6.88607e-10
6.79167e-10
6.29334e-10
6.44324e-10
5.28281e-10
5.65311e-10
1.59828e-10
2.5612e-10
7.80088e-10
7.6788e-10
1.351e-09
1.28137e-09
1.97908e-09
1.73308e-09
1.72817e-09
1.78611e-09
1.96678e-09
2.12121e-09
1.43348e-09
1.53066e-09
1.65463e-09
1.77559e-09
1.58362e-09
1.27522e-09
1.36203e-09
1.20467e-09
1.22217e-09
1.14851e-09
8.99278e-10
8.47468e-10
3.31303e-10
3.19193e-10
5.09678e-10
5.26202e-10
6.66429e-10
6.79165e-10
6.22007e-10
6.14749e-10
7.09821e-10
7.20027e-10
7.15471e-10
7.46971e-10
5.02265e-10
5.11796e-10
4.74807e-10
4.61376e-10
3.58838e-10
3.45706e-10
2.90427e-10
2.77783e-10
3.80286e-10
2.91162e-10
4.64475e-10
4.59721e-10
3.64633e-10
3.34731e-10
4.05354e-10
3.7698e-10
3.29669e-10
3.18528e-10
2.26689e-10
2.47908e-10
2.0374e-10
1.92843e-10
1.97606e-10
2.01421e-10
1.97528e-10
1.85936e-10
1.29366e-10
1.40631e-10
2.91052e-10
2.85541e-10
2.19894e-10
2.31109e-10
1.52762e-10
1.56975e-10
1.92781e-10
7.52533e-11
7.54573e-11
2.43571e-10
2.4141e-10
2.02016e-10
2.00013e-10
2.3216e-10
1.81339e-10
2.0687e-10
2.01852e-10
2.19452e-10
2.13638e-10
2.49868e-10
2.44458e-10
2.63492e-10
2.61925e-10
2.54542e-10
2.49412e-10
3.10938e-10
2.76093e-10
5.54288e-10
5.69898e-10
3.60759e-10
3.63407e-10
2.99411e-10
3.01081e-10
2.76323e-10
2.72823e-10
2.70038e-10
2.73105e-10
2.83662e-10
2.86114e-10
2.60077e-10
2.5675e-10
2.52208e-10
2.53339e-10
2.30039e-10
2.53009e-10
-6.93089e-08
-8.12519e-08
2.706e-08
3.42286e-08
-3.87513e-08
3.94596e-08
3.82271e-08
2.23953e-08
-1.32064e-08
7.8958e-08
-2.36822e-08
2.78318e-07
-2.76015e-09
-1.81248e-09
1.29634e-07
1.21994e-07
8.47487e-07
8.62815e-07
2.69159e-07
3.06738e-07
-6.54452e-08
-6.4549e-08
4.14412e-08
5.11836e-08
-2.33054e-08
-7.77343e-09
6.13178e-09
6.26603e-08
1.23584e-07
2.28979e-08
-3.5148e-08
-6.70254e-08
-8.73042e-08
-2.33586e-08
-4.9789e-08
-9.98432e-08
-7.1089e-09
-7.01634e-09
4.93635e-09
5.66186e-09
9.5865e-10
-3.00246e-10
-1.51989e-10
-1.4999e-10
-2.25028e-10
-2.20341e-10
-3.56018e-10
-3.20175e-10
2.5772e-11
2.70637e-11
-4.80833e-11
-4.7611e-11
-8.1363e-11
-7.94236e-11
-1.03473e-10
-1.06012e-10
-1.17601e-10
-1.19839e-10
-8.71902e-11
-9.13751e-11
-4.71728e-11
-1.84963e-11
-8.88982e-12
-1.68839e-11
1.24783e-10
1.32963e-10
4.08697e-08
4.46533e-08
3.48268e-08
3.79918e-08
2.17958e-09
2.10071e-09
4.00831e-09
3.75631e-09
3.644e-10
-5.62157e-09
-3.17797e-09
-5.32303e-09
-4.97675e-09
2.04362e-08
1.87832e-08
-7.25272e-09
-6.37722e-09
-3.23906e-09
-2.77784e-09
-7.70546e-09
-6.80947e-09
-1.14339e-08
-1.27953e-08
-2.50626e-08
-2.25829e-08
-2.2152e-08
-2.01019e-08
-2.85333e-08
-2.63632e-08
-1.22574e-07
-1.35353e-07
4.85447e-07
4.69263e-07
4.67085e-07
3.77764e-07
8.77164e-07
8.73147e-07
9.87726e-07
1.10294e-06
3.89843e-07
3.65274e-07
5.26816e-07
5.34117e-07
2.72232e-07
2.69907e-07
-1.2768e-07
-1.43466e-07
-6.19935e-08
1.30106e-07
1.4408e-06
1.52618e-06
1.43761e-07
1.39017e-07
1.249e-06
5.38276e-07
4.85742e-07
7.51996e-07
5.47111e-07
6.75677e-09
3.10282e-08
1.07791e-07
2.9251e-07
2.21477e-07
1.8691e-07
4.17277e-08
-1.35626e-08
-3.51628e-08
-1.21861e-07
-1.19166e-07
-1.34342e-07
1.6803e-07
2.16927e-07
6.33947e-08
6.04973e-08
8.98231e-09
3.53926e-08
-3.29044e-08
5.60345e-07
4.51018e-07
3.93227e-07
7.30852e-07
7.44433e-07
7.9242e-07
8.41833e-07
9.78749e-07
8.48912e-07
1.513e-06
1.51625e-06
1.87595e-06
1.8366e-06
8.37563e-07
8.3532e-07
1.02601e-06
1.05366e-06
3.93859e-07
4.19554e-07
3.41196e-07
3.52244e-07
4.1709e-07
3.72114e-07
-2.38821e-08
-1.9791e-08
-1.15558e-08
-9.42776e-09
-1.88204e-08
-2.37549e-08
-2.82734e-08
-5.15623e-08
-5.83463e-08
-7.15558e-08
-7.59475e-08
-1.26201e-07
-1.23304e-07
-9.65816e-08
-3.9414e-08
-4.98959e-08
-7.41577e-08
1.09782e-07
1.15994e-07
8.93942e-08
9.14609e-08
5.34605e-08
4.79829e-08
1.26029e-07
1.38043e-07
1.58117e-07
1.57294e-07
2.07237e-07
2.14802e-07
1.52953e-10
2.45884e-10
6.09106e-09
5.81823e-09
8.54303e-10
8.74621e-10
2.28198e-09
2.36359e-09
5.36049e-10
5.2483e-10
6.59227e-10
6.62859e-10
5.53887e-10
5.84791e-10
6.22651e-10
6.43211e-10
5.953e-10
1.58901e-10
6.95886e-11
8.34076e-10
8.5152e-10
7.85354e-10
7.56398e-10
7.57544e-10
7.47191e-10
1.62439e-09
1.70929e-09
2.23701e-09
2.19954e-09
2.38264e-09
2.41563e-09
2.41072e-09
2.60774e-09
2.29389e-09
1.61597e-09
1.63791e-09
1.69893e-09
1.82432e-09
1.25414e-09
1.33556e-09
1.19696e-09
1.19879e-09
7.75913e-10
8.22392e-10
8.69846e-10
9.24607e-10
3.85639e-10
3.74042e-10
5.13706e-10
4.98326e-10
6.14362e-10
5.96194e-10
6.53549e-10
7.14153e-10
6.99938e-10
5.31835e-10
5.08397e-10
6.26027e-10
6.27613e-10
6.81943e-10
6.75977e-10
5.72143e-10
5.57337e-10
5.79186e-10
5.69488e-10
4.58669e-10
4.8969e-10
3.85838e-10
3.73421e-10
3.73543e-10
2.84049e-10
2.97934e-10
3.46596e-10
3.29135e-10
4.34332e-10
4.07893e-10
3.16596e-10
3.22656e-10
3.90956e-10
4.0278e-10
3.66911e-10
3.94488e-10
2.81578e-10
2.74015e-10
2.61478e-10
1.69685e-10
1.59259e-10
2.30191e-10
2.441e-10
2.07949e-10
1.94883e-10
2.04213e-10
1.39198e-10
1.50883e-10
1.54027e-10
3.6652e-10
3.5765e-10
2.27982e-10
2.39923e-10
1.9211e-10
2.00877e-10
1.78015e-10
1.80211e-10
1.52449e-10
1.51315e-10
1.70166e-10
1.75652e-10
2.7751e-10
2.35693e-10
1.14803e-10
2.07293e-10
2.05566e-10
1.62186e-10
1.68583e-10
1.84551e-10
1.80539e-10
1.97991e-10
1.93896e-10
2.23353e-10
2.17392e-10
2.52341e-10
2.47265e-10
2.59878e-10
2.5765e-10
2.2871e-10
2.31551e-10
2.53024e-10
2.47525e-10
2.60019e-10
2.66332e-10
5.07457e-10
4.9383e-10
3.48279e-10
3.39982e-10
3.43435e-10
3.47911e-10
3.60876e-10
3.65414e-10
3.48134e-10
3.52968e-10
3.03365e-10
3.07433e-10
2.84336e-10
2.80825e-10
3.19025e-10
3.25359e-10
2.7688e-10
2.79453e-10
2.52564e-10
2.47619e-10
2.55191e-10
2.55965e-10
2.65479e-10
2.63663e-10
2.3474e-10
3.18054e-10
2.20477e-10
1.90571e-09
1.92083e-09
6.22653e-07
5.49121e-07
4.30339e-08
1.54004e-07
1.03267e-07
4.4907e-08
4.34098e-09
1.04073e-07
1.40312e-07
2.83368e-08
-2.49239e-08
-1.86573e-07
3.47117e-09
3.08084e-09
7.22984e-08
6.77713e-08
3.17088e-07
2.79778e-07
7.09489e-07
7.15939e-07
9.67494e-07
1.07121e-06
6.66044e-07
7.1101e-07
1.88915e-07
1.11794e-07
-8.20269e-09
9.00714e-09
4.16578e-08
6.10526e-08
-5.38316e-08
-4.56634e-08
-3.69603e-08
1.36577e-07
5.45608e-08
1.69283e-08
1.62087e-07
2.04485e-07
8.34548e-09
-2.11457e-08
-4.0237e-08
4.10693e-07
3.60441e-07
3.41014e-07
-2.05708e-08
-1.95432e-08
-1.86347e-08
1.08986e-08
8.97636e-09
3.91609e-10
4.13775e-10
-1.99636e-10
-2.00428e-10
-1.52642e-10
-1.56979e-10
-1.39397e-10
-1.39923e-10
-2.18918e-10
-2.14842e-10
-3.69247e-10
-3.31743e-10
-2.35371e-10
-2.44843e-10
2.01424e-11
1.89589e-11
-6.95508e-11
-7.0764e-11
-8.47004e-11
-8.20636e-11
-8.60885e-11
-8.4418e-11
-9.52913e-11
-9.85599e-11
-1.02022e-10
-9.89745e-11
-1.17813e-10
-1.22629e-10
-1.51241e-10
-1.62409e-10
-4.87468e-11
-4.48182e-11
1.70403e-13
2.24801e-11
-3.41759e-11
-3.59776e-11
-4.02484e-11
-1.93005e-11
-1.30989e-11
1.62617e-12
2.1807e-10
1.98383e-10
3.44453e-08
3.7621e-08
2.90034e-08
2.66449e-08
2.5933e-09
2.71813e-09
3.53446e-09
3.762e-09
-6.55544e-10
5.28868e-11
-7.93903e-10
-1.21094e-09
-4.49963e-09
-4.02374e-09
1.45527e-08
1.34186e-08
-1.68861e-08
-2.05367e-08
-2.00798e-09
-1.67268e-09
-4.84643e-09
-5.54031e-09
-8.43956e-09
-7.47022e-09
-1.43011e-08
-1.5928e-08
-3.17089e-08
-3.48511e-08
-1.84947e-08
-1.66936e-08
-2.65875e-08
-2.44188e-08
-2.38285e-08
-2.15209e-08
7.05247e-09
6.88408e-09
5.79353e-07
6.65638e-07
6.95245e-07
4.07677e-07
3.65798e-07
7.83026e-07
7.72301e-07
4.08191e-07
-9.84025e-08
9.38818e-09
6.92101e-09
1.0426e-06
9.60001e-07
1.2184e-06
4.81017e-07
4.38819e-07
1.68475e-07
1.31913e-07
2.68963e-07
2.36039e-07
2.54386e-07
1.26839e-07
-4.46875e-08
-1.23265e-07
-1.35379e-07
-5.23713e-08
-7.76505e-08
-1.73827e-07
1.40723e-07
1.74817e-07
-1.78551e-09
-1.00196e-08
3.90375e-07
2.61081e-07
4.45357e-07
5.22034e-07
4.05649e-07
9.33924e-07
1.13795e-06
8.83164e-07
9.14091e-07
8.66554e-07
7.58037e-07
1.35007e-06
1.35576e-06
1.64597e-06
1.69403e-06
8.07072e-07
8.27781e-07
1.06842e-06
1.07238e-06
3.69427e-07
3.44502e-07
-2.82307e-08
-3.25211e-08
-7.82067e-09
-1.349e-08
-3.1828e-08
-3.58341e-08
-5.99078e-08
-6.6009e-08
-1.12047e-07
-1.05344e-07
-2.84719e-08
1.04704e-07
9.91488e-08
1.20924e-07
1.24434e-07
7.05916e-08
7.62369e-08
1.96148e-07
1.89666e-07
-1.12642e-08
-1.2575e-08
2.05823e-08
2.01008e-08
5.94204e-09
5.78738e-09
7.29352e-10
7.14345e-10
9.10168e-10
9.08791e-10
2.07374e-09
2.17329e-09
5.60562e-10
5.9785e-10
1.01745e-09
1.02407e-09
-9.79607e-11
-1.71e-10
6.79259e-10
6.88529e-10
6.52745e-10
6.6295e-10
5.97793e-10
6.09904e-10
6.19669e-10
6.38514e-10
5.88936e-11
-4.24268e-11
8.69079e-10
8.90156e-10
8.00216e-10
8.14831e-10
7.72769e-10
7.75147e-10
1.31835e-09
1.3647e-09
1.47102e-09
1.53786e-09
2.1396e-09
2.22199e-09
1.85789e-09
1.74428e-09
2.52485e-09
2.63491e-09
2.34087e-09
2.37466e-09
2.50864e-09
2.31818e-09
1.50975e-09
1.41264e-09
1.19615e-09
1.18033e-09
1.24148e-09
1.32405e-09
8.0838e-10
7.62268e-10
8.9398e-10
9.4944e-10
3.25903e-10
3.12319e-10
3.68265e-10
3.56613e-10
5.00592e-10
4.85028e-10
6.43961e-10
6.56688e-10
7.27867e-10
7.43888e-10
6.9496e-10
7.0895e-10
6.29013e-10
6.14763e-10
6.5521e-10
6.4911e-10
6.57668e-10
6.57072e-10
7.28863e-10
7.38401e-10
7.59113e-10
7.53584e-10
4.73051e-10
4.84881e-10
5.06199e-10
5.16649e-10
4.72968e-10
4.85854e-10
5.21091e-10
5.06043e-10
3.88209e-10
4.01328e-10
4.14483e-10
4.01324e-10
2.67237e-10
2.81942e-10
2.90113e-10
2.76407e-10
3.62469e-10
3.23168e-10
4.69991e-10
4.66093e-10
3.50064e-10
3.24063e-10
3.16332e-10
2.98327e-10
2.71347e-10
2.92291e-10
3.80688e-10
4.07913e-10
3.02263e-10
2.93874e-10
1.61632e-10
1.49899e-10
2.38501e-10
2.53952e-10
1.78252e-10
1.9357e-10
1.99884e-10
2.083e-10
1.64011e-10
1.61984e-10
2.83783e-10
2.78266e-10
1.72793e-10
1.54695e-10
2.09446e-10
2.18826e-10
1.07653e-10
1.96506e-10
1.65722e-10
1.6204e-10
6.88039e-11
6.88591e-11
9.18725e-11
9.35385e-11
2.11506e-10
2.1771e-10
2.3006e-10
2.28726e-10
2.17519e-10
2.21589e-10
2.10783e-10
2.09415e-10
1.91142e-10
1.88432e-10
1.73887e-10
1.66314e-10
1.89e-10
1.85754e-10
1.98165e-10
2.03016e-10
2.97684e-10
2.66771e-10
2.5429e-10
2.49628e-10
2.39254e-10
2.33601e-10
2.55933e-10
2.51086e-10
3.09926e-10
2.76678e-10
3.08362e-10
2.76041e-10
5.55382e-10
5.58754e-10
4.99988e-10
5.1315e-10
3.48763e-10
3.5786e-10
3.52586e-10
3.55688e-10
3.81657e-10
3.74841e-10
3.59112e-10
3.59395e-10
2.98628e-10
3.02009e-10
2.92229e-10
2.96337e-10
2.77532e-10
2.80852e-10
2.74331e-10
2.69397e-10
2.76124e-10
2.73048e-10
2.82717e-10
2.4482e-10
2.49011e-10
2.5289e-10
2.46092e-10
2.45755e-10
2.54782e-10
2.53346e-10
2.30893e-10
2.32911e-10
2.31314e-10
1.99547e-09
-7.34472e-10
-1.22653e-07
-1.28513e-07
5.10499e-07
4.46555e-07
-6.44877e-08
-9.34391e-08
1.60469e-07
1.07867e-07
2.26741e-08
8.42451e-08
1.74184e-07
2.08583e-07
2.17133e-07
2.17371e-07
5.37848e-08
1.03125e-07
2.20159e-07
2.76872e-07
-4.5707e-08
-4.13692e-08
1.82321e-08
2.12547e-08
4.5614e-08
6.54707e-08
1.24652e-07
1.10576e-07
3.02636e-07
3.41956e-07
6.35463e-07
6.36857e-07
6.49534e-07
6.78644e-07
9.81878e-07
1.08422e-06
6.33298e-07
5.95538e-07
1.06942e-06
1.01089e-06
2.14971e-07
1.49724e-07
2.94037e-08
5.97262e-09
-5.20971e-09
5.14319e-08
-3.05821e-08
-1.3048e-08
2.30045e-08
6.87915e-08
9.00477e-08
1.3229e-07