/*--------------------------------*- C++ -*----------------------------------*\
  =========                 |
  \\      /  F ield         | OpenFOAM: The Open Source CFD Toolbox
   \\    /   O peration     | Website:  https://openfoam.org
    \\  /    A nd           | Version:  7
     \\/     M anipulation  |
\*---------------------------------------------------------------------------*/
FoamFile
{
    version     2.0;
    format      ascii;
    class       volScalarField;
    location    "240";
    object      T;
}
// * * * * * * * * * * * * * * * * * * * * * * * * * * * * * * * * * * * * * //

dimensions      [0 0 0 1 0 0 0];

internalField   nonuniform List<scalar> 
238806
(
0.000933081
0.000912589
0.00069729
0.000683267
0.000715039
0.000865806
0.000869647
0.000930209
0.000951308
0.000670307
0.000658681
0.000747929
0.000434714
0.000427106
0.000457083
0.000486101
0.000651698
0.000636614
0.00112272
0.0011272
0.000503957
0.000488966
0.000483819
0.000475764
0.000458642
0.000675671
0.000656273
0.000651792
0.000605018
0.000611231
0.00111052
0.00112681
0.000533615
0.000557864
0.000565318
0.000590573
3.62718e-09
3.50582e-09
0.000687586
0.000702249
0.000679885
0.000650357
0.001093
0.0011072
0.00110908
0.00110414
0.00043315
0.000460197
0.000582516
0.000607351
0.000731099
0.0007404
0.0004554
0.00044731
2.43564e-07
2.46073e-07
0.000683339
0.000700859
0.000700381
0.000738866
0.000721214
0.000712935
0.000712446
0.000704727
0.000725959
0.00109388
0.00109101
0.000972535
0.000955773
0.00084741
0.000825267
0.000524472
0.000501362
0.000588377
0.000565124
0.000670334
0.000657703
0.000564619
0.000589632
1.11181e-05
1.12378e-05
0.000598302
0.000624612
0.000953747
0.000964147
0.000777472
0.00075443
0.000603011
0.000617638
0.000632865
0.000618864
0.000761365
0.000739248
0.00104942
0.00103807
0.00068491
0.000707877
0.000694825
0.000669538
0.000646954
0.00108531
0.000978765
0.000966505
0.000947224
0.000951282
0.000356492
0.000342731
0.000549918
0.000528947
0.000541453
0.000517636
0.000670268
0.000686573
0.000714405
0.000705871
0.000440953
0.000461985
3.42473e-09
3.4529e-09
3.3403e-09
0.000435838
0.000407679
0.000922281
0.000911853
0.000886421
0.000890291
0.000430817
0.000428081
0.000574344
0.000582608
0.000720447
0.000612992
0.000600924
0.000616647
0.000758776
0.000782348
0.0010429
0.00105977
0.000510147
0.000492301
0.000499782
0.00051193
0.000720832
0.00103049
0.00101286
0.00101974
0.00100745
0.000945269
0.000957374
0.000878347
0.000864159
0.000782531
0.000770339
0.00037117
0.000354021
0.00049195
0.000473975
0.000507222
0.000484945
0.000483389
0.000469243
0.000645998
0.000634286
0.000740834
0.000732862
0.000559803
0.000585091
1.70928e-05
1.69462e-05
3.64848e-09
3.52645e-09
0.000576238
0.00060019
0.000130973
0.000128873
0.000128823
0.000943096
0.00093257
0.000721855
0.000712703
0.000398948
0.000399115
0.00058509
0.000621079
0.000638254
0.000632891
0.000961377
0.000955474
0.00106558
0.00108171
0.00108978
0.00110427
0.000946477
0.00093261
0.000684988
0.000706412
0.000710446
0.000573764
0.0005773
0.00069037
0.000681046
0.00110574
0.0011153
0.00101197
0.000995293
0.000992677
0.000976219
0.000790207
0.00076512
0.000841509
0.000855148
0.000223421
0.000228045
0.000324203
0.000307936
0.000410101
0.000431251
0.000486082
0.000509768
0.000547175
0.000569211
0.000665426
0.000648912
0.000702695
0.000718458
0.000708006
0.000714979
0.000563741
0.000589103
4.88026e-05
5.23141e-05
2.45898e-06
2.67812e-06
2.69066e-06
2.94125e-06
1.2e-07
1.07858e-07
0.000852738
0.000880815
0.000770618
0.000807178
0.000352124
0.000328293
9.61496e-05
9.1897e-05
0.000901509
0.000891919
0.000759132
0.00076855
0.000723263
0.000700487
0.000627152
0.000607689
0.000486824
0.000495361
0.000668411
0.000689309
0.00104176
0.0010607
0.00105413
0.00107136
0.00105824
0.00107449
0.000614768
0.000616777
0.000916831
0.000935504
0.000695381
0.00068374
0.000528022
0.00050363
0.000740022
0.000563113
0.000799878
0.000786943
0.000817205
0.00109625
0.00108598
0.00105825
0.00104567
0.000987344
0.00099958
0.000899884
0.000924058
0.00090247
0.000904041
0.000848843
0.000841635
0.00031308
0.000302409
0.000382893
0.000396094
0.000311863
0.000296539
0.000362377
0.000343067
0.000462275
0.000439309
0.000493747
0.000469617
0.000489847
0.0004685
0.000441235
0.000433299
0.000609549
0.000590164
0.000662673
0.000655531
0.000694515
0.000680655
0.000445786
0.000449137
0.000535378
0.000539178
0.000534147
0.000511557
1.77022e-05
1.89187e-05
3.43265e-05
3.68878e-05
1.37635e-05
1.27392e-05
1.0391e-05
1.02844e-05
1.75557e-06
1.76266e-06
1.07875e-07
1.20099e-07
3.25091e-09
0.00055497
0.000576125
0.000405127
0.000431426
2.83175e-07
2.54146e-07
0.000304143
0.000317997
0.000127544
0.000123779
0.000883187
0.000865877
0.000905508
0.000909612
0.000735786
0.000745126
0.000685033
0.000665918
0.000556591
0.000559653
0.000548469
0.000539733
0.000874557
0.000903276
0.00102713
0.00105077
0.00100759
0.000991711
0.000992172
0.00107799
0.00106204
0.000659741
0.000662042
0.000823585
0.000845094
0.000906031
0.000924593
0.000644332
0.000621343
0.000470001
0.000817719
0.00079226
0.000635819
0.00066253
0.000711755
0.000731372
0.000729767
0.000712496
0.000948152
0.000930838
0.0010841
0.00109492
0.00105724
0.00105306
0.00104903
0.00103211
0.00103041
0.00101252
0.000673869
0.000696929
0.000745778
0.000769548
0.000927029
0.00092217
0.000944085
0.000935303
0.000853856
0.000852954
0.000831371
0.000818202
0.000755288
0.000731857
0.000242772
0.000237321
0.000386225
0.000399651
0.000299741
0.00028532
0.00034946
0.000331187
0.000402335
0.000380041
0.000444891
0.000419934
0.000472475
0.00045209
0.000453565
0.000461093
0.000588347
0.000569818
0.000680695
0.000688501
0.000593867
0.000619469
0.000516666
0.000540265
0.000511785
0.000515425
0.000557196
2.51728e-05
2.6804e-05
4.88458e-05
5.23447e-05
2.92655e-05
2.71947e-05
2.36553e-05
2.55315e-05
2.66327e-06
2.4444e-06
3.44385e-06
3.70568e-06
2.09758e-06
1.92364e-06
1.83792e-08
1.8452e-08
1.41311e-06
1.5383e-06
0.000729254
0.000744177
0.000722532
0.000377786
0.000366979
0.000384177
0.000370599
0.000376973
0.000386421
2.71203e-07
2.73986e-07
0.000179361
0.000171481
0.000137596
0.000133833
0.00012624
0.000125895
0.000319977
0.000322654
0.000914063
0.0009277
0.000872952
0.000862353
0.000798209
0.000801257
0.000746597
0.000644097
0.00064326
0.000624376
0.000532286
0.000505668
0.000509554
0.000516584
0.000998211
0.00100202
0.00101514
0.00103229
0.00102081
0.00103381
0.00102494
0.00108391
0.00109875
0.000570648
0.000572454
0.000654885
0.000632605
0.000705082
0.00068238
0.000921208
0.000901935
0.000670861
0.000694996
0.000596556
0.000603052
0.000589227
0.000478499
0.000547916
0.000550624
0.00053929
0.000530325
0.000590301
0.000709459
0.000886729
0.000908318
0.00101043
0.000994245
0.0010768
0.0010658
0.00104631
0.00106598
0.00109477
0.001082
0.00102687
0.00103926
0.000714414
0.000691634
0.000808241
0.000781951
0.000862289
0.000887895
0.000877971
0.00087919
0.000923298
0.000908038
0.000801667
0.000802032
0.000816937
0.000823743
0.000746227
0.000757754
0.000202208
0.000207838
0.000303735
0.000324356
0.000437974
0.000454052
0.00035751
0.000372133
0.000327229
0.000342494
0.000367742
0.000385883
0.000336746
0.000319489
0.000388783
0.00036743
0.000430308
0.000406367
0.000492237
0.000511194
0.000455207
0.000435813
0.00051002
0.000514307
0.000496336
0.000507924
0.000567104
0.000549472
0.000630958
0.000651925
0.000586363
0.00058089
0.000719937
0.000722605
0.000643386
0.000624028
0.000603375
0.000580523
0.000540797
0.000517049
0.000489542
0.000468127
9.41423e-06
8.77597e-06
1.891e-05
1.76959e-05
3.44238e-05
3.70027e-05
1.58077e-05
1.56748e-05
1.27616e-05
1.37922e-05
7.68361e-06
7.13985e-06
2.98318e-06
2.94911e-06
3.52263e-06
3.51556e-06
1.91624e-06
2.09033e-06
1.23048e-08
1.09835e-08
3.55771e-09
3.4363e-09
4.37532e-07
4.3996e-07
9.64698e-08
9.65838e-08
0.000630973
0.0006021
0.000878754
0.000870154
0.000334251
0.000323801
0.000550865
0.000524635
0.000525556
0.000557293
0.000396031
0.0004213
4.06516e-07
4.10578e-07
5.4725e-09
5.28038e-09
7.36919e-05
7.20179e-05
0.000108541
0.000103874
0.000100374
0.00010383
0.00012398
0.000121406
0.000123036
0.000129017
0.000862462
0.00084484
0.000919517
0.000941277
0.00095512
0.000974383
0.00085959
0.000880797
0.00082141
0.000824829
0.000736314
0.000759329
0.000692663
0.000668309
0.000369707
0.000371712
0.000583303
0.000565014
0.000575356
0.000539662
0.000503212
0.000815595
0.000810855
0.000974685
0.000962681
0.00102731
0.00100968
0.00101449
0.00100582
0.00107566
0.00109098
0.000549058
0.000550782
0.000691492
0.000669562
0.000637187
0.000639327
0.000880424
0.000898407
0.000940577
0.00096013
0.000608645
0.000587357
0.000588938
0.000674697
0.000653822
0.000638446
0.000752595
0.000770653
0.000783273
0.000768559
0.000746316
0.000644637
0.00061804
0.000506416
0.000755222
0.000927217
0.000906918
0.00107422
0.00106221
0.00107235
0.00107607
0.00106677
0.00104967
0.000728102
0.000722414
0.000705776
0.000739583
0.000721599
0.000862836
0.000885463
0.000896937
0.000871464
0.000913476
0.000939822
0.000912739
0.000921179
0.000889141
0.000868795
0.000766457
0.000772414
0.000827506
0.000828123
0.000802312
0.000778832
0.00028567
0.000295304
0.000246035
0.000239329
0.00023625
0.000239684
0.000313885
0.000324368
0.000419675
0.00043807
0.000420378
0.00043554
0.000372625
0.000388144
0.000328589
0.000314211
0.00038168
0.000400824
0.000375492
0.000355139
0.000416172
0.000393028
0.000510597
0.000530547
0.000474379
0.000482002
0.000463185
0.000449856
0.000620667
0.000605318
0.000630702
0.000610478
0.000621627
0.000610703
0.000669361
0.000667307
0.000638873
0.000658901
0.00065502
0.000604481
0.000632367
0.000494172
0.000493958
0.000544873
0.000568969
0.000476736
0.000498755
0.000314268
0.000328309
9.38399e-06
9.36263e-06
1.55463e-05
1.45217e-05
1.79004e-05
1.81222e-05
4.1846e-05
3.90035e-05
2.73362e-05
2.94263e-05
2.35858e-05
2.54652e-05
2.64688e-06
2.42831e-06
5.57164e-06
5.52246e-06
6.23284e-06
6.24623e-06
3.92014e-06
4.2218e-06
4.04893e-06
4.36856e-06
2.60684e-06
2.82794e-06
2.49021e-06
2.28584e-06
1.85149e-07
2.04789e-07
1.65231e-08
1.85404e-08
8.77373e-09
7.84852e-09
3.58948e-09
3.46852e-09
3.50927e-09
3.3856e-09
3.9633e-07
3.95457e-07
3.43141e-09
3.57928e-09
3.44508e-09
0.000573034
0.000583577
0.000877067
0.000853669
0.000842888
0.00090031
0.000872499
0.000976458
0.00100639
0.000376351
0.000366106
0.000483049
0.00049828
0.000508451
0.00053225
0.000684634
0.00066924
0.000654191
0.000670585
0.000160729
0.000145061
1.35741e-07
1.22466e-07
2.95705e-07
2.98756e-07
1.26535e-07
1.2789e-07
2.26907e-08
2.2705e-08
0.000128967
0.000136284
0.000195866
0.000187488
0.000116741
0.000111515
9.93049e-05
9.48302e-05
0.0001125
0.000108842
0.000126719
0.000126993
0.000124674
0.000132597
0.000129815
0.000761729
0.000782878
0.000904335
0.000886732
0.000922129
0.000938821
0.000926736
0.000885401
0.000894421
0.000900887
0.000815888
0.000828263
0.000730972
0.000727937
0.000781906
0.000800225
0.000649347
0.000671826
0.000394172
0.000398779
0.000606779
0.000587717
0.000558397
0.000594001
0.000790429
0.000781101
0.000983381
0.000995124
0.000981715
0.000977881
0.00101091
0.000993274
0.00106831
0.00105171
0.000592561
0.000594468
0.00064761
0.000625689
0.000782581
0.000805332
0.00088291
0.000864059
0.000954364
0.000973236
0.000642058
0.000665029
0.00066281
0.000464838
0.000447066
0.000476011
0.000587252
0.000573257
0.000539866
0.000525566
0.000523888
0.000495896
0.00076316
0.000792934
0.00066064
0.000684473
0.00105248
0.00107549
0.00103689
0.00102477
0.00105303
0.00103937
0.00106412
0.0010768
0.000772822
0.000766576
0.000754169
0.000833662
0.000858387
0.000902253
0.000877062
0.000952082
0.000949683
0.000886411
0.00090111
0.00077554
0.000775734
0.000794414
0.000807145
0.000219649
0.000213412
0.000213274
0.000218479
0.00025691
0.000252772
0.000347257
0.000335773
0.000408906
0.00045586
0.000472877
0.000382316
0.000369729
0.000340505
0.000356695
0.000415965
0.000395812
0.000454255
0.000477946
0.000533006
0.000537645
0.0004241
0.00041231
0.000486343
0.0004754
0.000552364
0.000539343
0.000627243
0.000643278
0.000597341
0.000587125
0.000611304
0.000615212
0.000746405
0.000749264
0.000749174
0.000746315
0.000675784
0.000664139
0.000660494
0.00047218
0.000472215
0.000553507
0.000578431
0.000483713
0.000506195
8.85398e-06
8.81036e-06
8.74952e-06
8.73042e-06
1.34918e-05
1.34927e-05
1.65533e-05
1.65577e-05
4.30211e-05
4.58816e-05
3.92501e-05
4.21143e-05
2.74451e-05
2.95532e-05
1.72135e-05
1.59187e-05
1.49024e-05
1.48661e-05
7.09893e-06
7.11518e-06
5.15876e-06
5.11391e-06
7.91845e-06
7.93866e-06
1.80301e-06
1.6555e-06
3.48753e-06
3.45158e-06
3.22199e-06
2.98077e-06
4.33504e-06
4.67716e-06
4.10526e-06
4.43164e-06
1.87088e-06
1.71425e-06
2.65036e-06
2.88351e-06
2.27906e-06
2.48441e-06
9.57851e-07
9.52628e-07
1.6434e-08
1.63594e-08
7.81815e-09
8.74362e-09
3.60755e-09
3.48652e-09
6.23609e-09
7.03107e-09
1.15946e-07
1.04839e-07
3.94964e-07
4.3615e-07
9.61782e-08
9.63351e-08
5.03266e-08
5.04693e-08
0.000772106
0.000796047
0.000795976
0.000620204
0.000591701
0.000780261
0.000754822
0.000796863
0.00083319
9.49275e-05
8.75545e-05
0.000857773
0.000830513
0.000313801
0.000303667
0.000355507
0.000344859
0.000570163
0.00054105
0.000606604
0.000588389
0.000598373
0.000609692
0.00021587
0.000232744
0.000129689
0.000130881
1.07854e-08
9.72629e-09
4.60402e-07
4.64822e-07
2.68426e-07
2.65662e-07
3.01816e-07
3.04894e-07
1.08248e-08
1.08128e-08
4.17725e-08
4.22323e-08
0.000319592
0.000334271
4.10537e-05
4.18753e-05
8.23126e-05
8.5065e-05
0.000280568
0.000294108
0.000164597
0.000172026
0.00010048
0.000104895
0.000116925
0.000112976
0.000114525
0.000118308
0.000129934
0.000126001
0.000122197
0.000314669
0.000898655
0.000878518
0.000975409
0.000954864
0.000850706
0.00083873
0.000814966
0.000837599
0.000751299
0.000754281
0.0006945
0.000716758
0.000686902
0.000707255
0.000372381
0.00037215
0.000354449
0.000431207
0.00042135
0.000669905
0.000649584
0.000525944
0.000513244
0.000837907
0.000852612
0.00084792
0.000835471
0.000938504
0.000930179
0.000991737
0.00104508
0.00102748
0.000993386
0.000985075
0.000636908
0.000616983
0.000582255
0.000588459
0.000677218
0.000699552
0.000864957
0.000845287
0.000755771
0.000764331
0.000782238
0.000689466
0.000710594
0.000628076
0.000652519
0.000546333
0.000568922
0.000564892
0.000645093
0.000660984
0.000636341
0.000611862
0.000598601
0.000563043
0.000548894
0.000512516
0.000485841
0.000734625
0.000946202
0.000942062
0.00101203
0.00101665
0.00104493
0.00105682
0.0010394
0.00103885
0.000819424
0.000825476
0.000756694
0.000742747
0.000841189
0.00086447
0.000882489
0.000905049
0.000865863
0.000873501
0.000926408
0.00092838
0.000798228
0.000791834
0.000246277
0.000238544
0.000276749
0.000269174
0.000231625
0.000225729
0.000242526
0.000245297
0.00037005
0.000357832
0.000373684
0.000386488
0.000421149
0.000403737
0.000403116
0.000417397
0.000424597
0.000446698
0.000450224
0.000447246
0.000424693
0.000415357
0.000517676
0.000529962
0.000545888
0.000529146
0.00060552
0.000611497
0.000573297
0.000563738
0.000641913
0.00063846
0.000722679
0.000719996
0.000693195
0.000695843
0.00069852
0.00068601
0.000470439
0.000467033
0.000451016
0.000451398
0.000521455
0.000529442
9.45352e-06
9.50334e-06
1.25863e-05
1.25867e-05
1.44549e-05
1.54758e-05
2.46657e-05
2.63868e-05
1.88152e-05
1.91624e-05
4.83366e-05
4.90802e-05
4.51671e-05
4.48761e-05
3.63353e-05
3.38288e-05
3.16563e-05
3.14747e-05
2.34687e-05
2.53451e-05
1.61252e-05
1.74241e-05
2.59064e-06
2.38872e-06
7.65609e-06
7.63801e-06
8.70724e-06
8.0538e-06
8.61413e-06
8.61001e-06
6.78046e-06
6.77902e-06
6.21373e-06
2.46394e-06
2.68318e-06
2.92205e-06
3.17867e-06
3.53404e-06
3.24041e-06
2.99708e-06
4.29995e-06
4.63766e-06
4.71474e-06
4.75081e-06
3.82851e-06
3.8216e-06
3.51047e-06
3.22228e-06
2.00415e-06
2.18012e-06
2.62779e-06
2.85358e-06
2.27097e-06
2.47648e-06
1.04485e-06
1.14067e-06
1.53017e-06
1.53681e-06
1.31748e-08
1.16757e-08
1.96312e-08
1.74506e-08
9.78167e-09
9.81307e-09
4.53634e-09
4.14009e-09
3.5729e-09
3.4518e-09
4.97524e-09
4.48434e-09
1.16394e-07
1.05305e-07
4.90642e-07
4.90103e-07
2.07369e-07
2.06064e-07
7.68827e-08
7.66976e-08
8.64237e-08
8.6263e-08
2.32231e-08
2.31646e-08
3.62314e-09
3.6195e-09
0.00074927
0.000774224
0.000659978
0.000647323
0.000800065
0.000778466
0.000719597
0.00069824
0.00084093
0.000826869
0.000806245
0.000452155
0.000460539
0.00105643
0.00108135
0.000336191
0.00031766
0.000325879
0.000388533
0.000399352
0.000512518
0.000485727
0.000701435
0.000699721
0.000714511
0.000722392
0.00063364
0.000637682
0.000563034
0.00014103
0.000147516
0.000143656
0.000159105
9.89512e-08
9.97925e-08
7.14708e-09
6.88574e-09
2.26219e-07
2.24731e-07
3.79442e-07
3.82977e-07
2.41048e-07
2.38546e-07
1.20315e-08
1.20774e-08
3.78425e-08
3.74296e-08
0.00024367
0.000256556
0.000284787
0.000298287
4.45862e-05
4.37339e-05
4.73603e-05
4.99449e-05
5.93113e-05
5.96357e-05
7.06248e-05
6.95235e-05
0.000179688
0.000187589
0.000102742
9.80254e-05
8.68435e-05
8.33023e-05
0.000120148
0.00011599
0.000107332
0.000110885
0.000131287
0.000134694
0.000824105
0.000803663
0.000842755
0.0008245
0.000950861
0.000971864
0.000919811
0.000938211
0.000805499
0.000793002
0.000774778
0.000777727
0.000740685
0.000761761
0.000712436
0.00073095
0.000465459
0.000462885
0.000443292
0.000627558
0.000623142
0.000647649
0.00062805
0.000556208
0.000539897
0.000828344
0.000806427
0.000971746
0.000950184
0.00102126
0.00104084
0.000539875
0.000545403
0.000610429
0.000603881
0.000964298
0.000980664
0.000844706
0.000862867
0.00090465
0.000884597
0.00058962
0.000564028
0.000573382
0.000662809
0.000648921
0.00071035
0.000729841
0.000619519
0.00062804
0.000643088
0.00069134
0.000534483
0.000537501
0.000221717
0.000224673
0.000681515
0.000701326
0.000625866
0.000600468
0.000624087
0.000519135
0.000503825
0.000496353
0.000550191
0.000538388
0.000968042
0.000980945
0.000976818
0.000964963
0.00103294
0.00103741
0.00110941
0.00112383
0.00111047
0.000997221
0.000997386
0.00103551
0.00102915
0.000845614
0.000851446
0.000767927
0.000782781
0.000793231
0.000817126
0.000874869
0.00084957
0.000897616
0.000889557
0.000260863
0.00025227
0.000207046
0.000196423
0.000261587
0.00025396
0.000300627
0.000292209
0.000294501
0.00027778
0.000278649
0.000285021
0.000353205
0.000346002
0.000366594
0.000359987
0.000404496
0.000388046
0.000466861
0.000470487
0.000434952
0.000444794
0.000443421
0.000430868
0.000561239
0.000575032
0.000524819
0.00050896
0.000630444
0.000636979
0.000642778
0.000641122
0.000696035
0.000693629
0.000722198
0.000708706
0.000492516
0.000489007
5.56554e-05
5.52703e-05
1.17849e-05
1.17521e-05
1.14043e-05
1.06126e-05
1.56227e-05
1.45922e-05
1.89356e-05
1.77224e-05
2.64435e-05
2.46531e-05
1.18745e-05
1.17264e-05
2.77265e-05
2.57343e-05
4.15594e-05
4.11121e-05
3.40491e-05
3.69156e-05
3.94473e-05
4.23224e-05
2.75535e-05
2.96957e-05
3.4032e-05
3.656e-05
3.18025e-05
2.32981e-05
2.51626e-05
2.17281e-05
2.52556e-05
2.34423e-05
1.73272e-05
1.6052e-05
1.70897e-06
1.56997e-06
2.07438e-06
2.25825e-06
4.35607e-06
4.38039e-06
6.61951e-06
6.64538e-06
1.04603e-05
1.05934e-05
1.01725e-05
1.09919e-05
6.08475e-06
6.04128e-06
7.34545e-06
7.34386e-06
5.32437e-06
5.32095e-06
2.30019e-06
2.11391e-06
3.21175e-06
3.25585e-06
4.55262e-06
4.59627e-06
3.72935e-06
3.4598e-06
4.40075e-06
4.07737e-06
4.90849e-06
4.90375e-06
3.22406e-06
3.22577e-06
2.19326e-06
2.01565e-06
2.43473e-06
2.41713e-06
2.95661e-06
2.71319e-06
1.74832e-06
1.90865e-06
3.65042e-07
3.30801e-07
1.38186e-06
1.50536e-06
1.28094e-06
1.2769e-06
1.52437e-06
1.29297e-07
1.16587e-07
7.91328e-09
8.92695e-09
1.6737e-08
1.87642e-08
7.8726e-09
8.78628e-09
7.78439e-09
8.70788e-09
6.22357e-09
6.95804e-09
4.12215e-09
4.51912e-09
3.77972e-09
3.79429e-09
4.46948e-09
4.96584e-09
3.5197e-09
3.39669e-09
1.41438e-06
1.54047e-06
2.16908e-07
2.16073e-07
1.34297e-07
1.34155e-07
1.6456e-07
1.4824e-07
6.90594e-08
6.88133e-08
8.60994e-08
8.59288e-08
2.96701e-08
2.97383e-08
8.37743e-09
8.37062e-09
3.32256e-09
3.24941e-09
0.000283818
0.00028897
0.00061241
0.00063738
0.000621331
0.000686736
0.000672657
0.00071229
0.000700944
0.000692695
0.000760678
0.000898251
0.000325048
0.000311272
0.000628818
0.000610889
0.00103197
0.00103909
0.000803505
0.000824995
0.000345017
0.000354841
0.000534686
0.000553009
0.000459433
0.000484046
0.00070798
0.000685889
0.000712963
0.000673101
0.000686053
0.000692458
0.000670462
0.000475793
0.000497958
0.000501454
7.50877e-05
7.45295e-05
0.000205023
0.000220806
3.92954e-05
4.26341e-05
5.00316e-07
4.99352e-07
3.33589e-08
3.74578e-08
7.21564e-09
6.95219e-09
1.8363e-07
2.03196e-07
8.47614e-07
8.41992e-07
3.44497e-07
3.41325e-07
3.35714e-07
3.39096e-07
1.75911e-07
1.77762e-07
1.02499e-07
1.03609e-07
5.55572e-09
5.35778e-09
2.70131e-08
2.73297e-08
6.05361e-09
5.47367e-09
0.000326376
0.000341298
0.000312163
0.000326503
8.12037e-05
7.67009e-05
6.80279e-05
6.37432e-05
5.67272e-05
5.51356e-05
5.7328e-05
7.28986e-05
7.41246e-05
0.000236358
0.000224848
0.000139092
0.000133277
0.00010642
0.000101454
9.07839e-05
8.69283e-05
8.69457e-05
9.02446e-05
0.000147904
0.000142964
0.000114367
0.000110586
0.000118648
0.000114977
0.00030099
0.000301662
0.000844453
0.000822692
0.000823557
0.000803502
0.000935466
0.000930117
0.000956751
0.000975399
0.000782429
0.000769913
0.000844052
0.000847734
0.000739042
0.000716277
0.000343342
0.000346242
0.000465635
0.000604931
0.00100279
0.00101428
0.000566767
0.000560903
0.000996809
0.000845319
0.000825927
0.000886228
0.000865626
0.000720129
0.000734834
0.000704502
0.000725552
0.000741883
0.000743279
0.000594676
0.000561465
0.000566779
0.000441321
0.000357543
0.000361249
0.000701484
0.000724232
0.000614284
0.000628928
0.000551817
0.000576097
0.000471302
0.000912699
0.000887023
0.000850398
0.000957825
0.00095631
0.00096183
0.000942659
0.000989344
0.000972999
0.00107704
0.0010775
0.0011117
0.00110465
0.000975061
0.000974777
0.00100891
0.00101519
0.000823666
0.000836302
0.000792903
0.000799183
0.000839074
0.000814875
0.000334902
0.000323898
0.000291848
0.000281403
0.000243693
0.000230774
0.000218522
0.000252622
0.000259068
0.000247942
0.000232328
0.000248343
0.00026574
0.000312856
0.000325118
0.000304449
0.000337309
0.000540656
0.000549606
0.000487897
0.000491873
0.00040517
0.000394158
0.000583279
0.000597855
0.00061644
0.000615181
0.000683396
0.000688613
4.16581e-05
3.93966e-05
0.000102818
0.000101838
3.89263e-06
4.21093e-06
3.23867e-05
3.47748e-05
2.66683e-05
2.50147e-05
1.26462e-05
1.27063e-05
1.90905e-05
1.78685e-05
1.54726e-05
1.44531e-05
1.65785e-05
3.38459e-05
3.58343e-05
1.36575e-05
1.38471e-05
1.24865e-05
1.15757e-05
2.67314e-05
2.85076e-05
4.21489e-05
4.4935e-05
4.57047e-05
4.5065e-05
4.55778e-05
4.54586e-05
4.84292e-05
5.19191e-05
4.5386e-05
3.19123e-05
3.19859e-05
3.41973e-05
3.67429e-05
2.30816e-05
2.49236e-05
2.191e-05
2.18399e-05
1.27379e-05
1.37779e-05
1.60968e-05
1.73818e-05
1.99896e-06
1.84178e-06
2.24515e-06
2.06302e-06
3.99646e-06
3.7162e-06
4.33559e-06
9.51747e-06
9.49288e-06
5.62355e-06
5.20646e-06
8.20845e-06
8.13287e-06
9.30945e-06
9.20471e-06
9.32408e-06
9.31807e-06
7.81381e-06
7.85571e-06
6.77639e-06
7.34088e-06
5.77288e-06
5.77054e-06
5.32493e-06
1.75489e-06
1.91043e-06
2.70309e-06
2.47975e-06
4.26265e-06
3.95768e-06
2.96084e-06
3.19748e-06
4.01981e-06
3.98986e-06
4.52746e-06
4.89024e-06
4.16346e-06
4.15647e-06
3.83811e-06
1.86056e-06
1.70514e-06
2.58773e-06
2.80571e-06
2.40001e-06
2.70889e-06
2.95486e-06
1.73221e-06
1.89109e-06
2.08245e-06
1.43344e-06
1.43046e-06
1.37427e-06
1.49727e-06
1.3919e-06
1.38785e-06
1.27514e-06
1.39522e-06
2.05652e-07
1.85927e-07
3.45634e-08
3.42302e-08
9.50774e-09
9.76719e-09
8.90571e-09
1.66258e-08
1.86452e-08
1.55087e-08
1.38035e-08
1.09498e-08
1.22678e-08
9.73698e-09
9.756e-09
6.21584e-09
6.95595e-09
4.10666e-09
4.50511e-09
3.81053e-09
3.82863e-09
7.05237e-09
6.24612e-09
4.47652e-09
4.97072e-09
4.03694e-09
3.71324e-09
8.28747e-07
7.57067e-07
5.92348e-07
5.389e-07
1.98054e-07
1.97268e-07
2.6629e-07
2.66055e-07
4.11707e-07
4.50932e-07
1.85387e-07
1.86282e-07
1.34022e-07
1.3383e-07
7.60331e-08
8.44767e-08
6.85878e-08
6.8386e-08
5.60592e-08
5.62429e-08
2.98045e-08
2.98335e-08
3.30464e-09
3.30095e-09
3.32001e-09
3.28605e-09
3.25226e-09
0.000226759
0.000215487
0.000974772
0.000948426
0.000666611
0.000684494
0.0006584
0.000603975
0.000676384
0.000683447
0.000759489
0.000728159
0.000706032
0.000727505
9.42064e-05
8.693e-05
0.000486955
0.000477998
0.000828369
0.000799898
0.00100348
0.00100592
0.0010618
0.00108403
0.000982629
0.000996022
0.000869905
0.000858383
0.000390344
0.00041533
0.000515914
0.000532348
0.000460711
0.00044732
0.000434847
0.000698499
0.000669832
0.000674483
0.000799401
0.000830173
0.000650647
0.000662068
0.000624568
0.000868885
0.000894337
0.000896779
0.000124676
0.000129238
0.000134795
0.000197156
0.00017804
1.73525e-05
1.76816e-05
5.04923e-06
5.00021e-06
2.27059e-07
2.28132e-07
3.73306e-08
4.1889e-08
3.31173e-08
3.71868e-08
7.28267e-09
7.01713e-09
1.57802e-08
1.40441e-08
2.04547e-07
1.84856e-07
7.5059e-07
7.57516e-07
3.09748e-07
3.06904e-07
2.8384e-07
2.81047e-07
3.73203e-07
3.76927e-07
1.9e-07
1.87977e-07
1.41282e-07
1.42793e-07
1.13212e-08
1.14397e-08
6.41478e-09
5.9144e-09
5.31229e-09
5.129e-09
3.10736e-08
3.13652e-08
2.51076e-08
2.52476e-08
1.09247e-08
9.77117e-09
4.19872e-09
4.04935e-09
0.000297509
0.00031181
0.000290709
0.000277659
7.86623e-05
8.33321e-05
6.2619e-05
6.67919e-05
9.02317e-05
9.33401e-05
6.26218e-05
6.10108e-05
7.56569e-05
7.74789e-05
0.000168455
0.000159219
0.000184335
0.00019132
0.000110311
0.000105081
0.000107564
0.000112505
8.86247e-05
8.49388e-05
9.35835e-05
9.69578e-05
0.000141676
0.000145996
0.000124
0.000119593
0.000122081
0.0001182
0.00011134
0.000107757
0.000273092
0.000262758
0.000873237
0.000880446
0.000860701
0.000803832
0.000783205
0.000915467
0.000908963
0.000791892
0.000336276
0.000286551
0.000296053
0.000965497
0.000969083
0.000980819
0.000825639
0.00080434
0.000615365
0.000635338
0.000798597
0.00077611
0.000766935
0.000674874
0.000524186
0.00033648
0.000337456
0.000444694
0.00042109
0.000418251
0.000675619
0.000652427
0.000563818
0.000576568
0.000841037
0.000820695
0.000812669
0.000923051
0.000914983
0.00100143
0.00102796
0.000975785
0.000984008
0.000969065
0.000952699
0.00105837
0.00105897
0.00108649
0.00109295
0.000966391
0.000972279
0.00101847
0.00101887
0.000809855
0.000796863
0.000269464
0.000278075
0.000271085
0.000257167
0.000225554
0.000232496
0.000284376
0.000265378
0.000261889
0.00025938
0.000346172
0.000526412
0.000518001
0.000556666
0.0005617
0.00045494
0.000465299
0.000668866
0.000665848
0.000135353
0.000141447
0.000222753
0.000220886
9.74028e-05
9.69193e-05
4.80268e-06
4.76759e-06
4.64714e-06
4.62588e-06
3.40616e-05
3.64213e-05
1.8956e-05
1.77355e-05
1.92153e-05
2.05785e-05
3.25283e-05
3.4407e-05
1.09365e-05
1.09354e-05
1.35131e-05
1.26065e-05
1.66314e-05
1.67143e-05
1.54969e-05
1.4476e-05
3.33692e-05
3.53026e-05
1.47317e-05
1.49458e-05
1.26571e-05
1.28247e-05
1.91486e-05
2.05014e-05
4.02832e-05
4.29396e-05
4.12256e-05
4.39464e-05
4.44626e-05
4.75759e-05
3.75247e-05
3.4573e-05
4.98081e-05
5.05055e-05
4.553e-05
4.55958e-05
5.15699e-05
4.81108e-05
2.96436e-05
2.75184e-05
2.15721e-05
2.13761e-05
2.36716e-05
2.55298e-05
1.37997e-05
1.27611e-05
1.61217e-05
1.74147e-05
1.71659e-06
1.57669e-06
1.69401e-06
1.55724e-06
2.23117e-06
2.05124e-06
4.03019e-06
4.04955e-06
5.48668e-06
5.526e-06
8.83272e-06
8.85497e-06
7.85069e-06
7.29006e-06
8.79276e-06
8.69797e-06
8.79585e-06
8.88047e-06
1.07276e-05
1.0861e-05
1.16194e-05
1.16843e-05
5.62656e-06
5.58757e-06
6.70011e-06
6.66642e-06
6.76641e-06
6.75041e-06
7.95107e-06
7.95584e-06
5.32231e-06
5.31567e-06
6.25729e-06
6.25568e-06
2.5289e-06
2.74175e-06
1.92149e-06
1.76514e-06
2.72185e-06
2.49402e-06
4.38007e-06
4.41898e-06
3.77815e-06
3.50003e-06
3.20714e-06
2.96804e-06
3.01618e-06
3.26137e-06
4.51036e-06
4.87085e-06
4.5225e-06
4.51635e-06
1.88127e-06
1.72341e-06
2.57042e-06
2.7861e-06
2.24917e-06
2.45151e-06
2.70187e-06
2.95056e-06
2.06307e-06
2.07334e-06
3.64501e-07
3.30205e-07
9.77189e-07
8.94101e-07
1.26919e-06
1.26168e-06
1.16897e-06
1.17274e-06
1.39906e-06
1.40435e-06
1.30054e-07
1.17264e-07
2.55266e-08
2.27771e-08
3.96341e-09
3.9228e-09
1.28345e-08
1.44526e-08
1.46294e-08
1.4552e-08
1.32324e-08
1.48284e-08
1.35934e-08
1.52408e-08
1.37651e-08
1.54766e-08
1.09185e-08
1.2229e-08
8.72093e-09
7.79605e-09
3.67151e-09
3.54845e-09
4.09318e-09
4.49366e-09
6.25163e-09
7.06407e-09
4.46317e-09
4.96085e-09
3.49132e-09
3.36626e-09
3.4768e-09
3.35026e-09
9.80734e-07
9.77419e-07
7.55406e-07
8.2683e-07
5.39039e-07
5.92016e-07
1.96546e-07
1.95822e-07
3.55712e-07
3.56888e-07
4.14914e-07
4.53238e-07
1.66569e-07
1.67087e-07
1.83831e-07
2.03962e-07
1.07874e-07
1.20272e-07
1.33631e-07
1.33429e-07
7.70771e-08
7.72808e-08
4.44894e-08
4.5107e-08
2.63022e-08
2.63138e-08
1.00726e-08
1.13498e-08
1.38662e-08
1.38796e-08
4.56389e-09
4.54816e-09
3.46055e-09
0.000204593
0.000194719
0.000322267
0.000301292
0.000930913
0.000903833
0.000572078
0.000576141
0.000728505
0.000702172
0.000644671
0.000631559
0.000783454
0.000793917
0.000814601
0.00080748
0.000740842
0.000760594
0.000904862
0.000936774
0.000214815
0.000207099
0.000283129
0.00029175
0.000509359
0.000525061
0.000615444
0.000587323
0.000815689
0.000844211
0.000981474
0.00098026
0.000981789
0.000991636
0.00106408
0.00108453
0.000972779
0.000952818
0.00107202
0.00105883
0.000896731
0.000890519
0.0004559
0.000437476
0.000442831
0.000512991
0.000472536
0.000498331
0.000590381
0.000621469
0.000700373
0.000723825
0.0007441
0.000767841
0.000789262
0.000751182
0.000518314
0.000530409
0.000499263
0.000750362
0.000751321
0.000542056
0.000550456
0.000113832
0.000119236
0.000123422
0.000128824
0.000200024
0.000189925
0.000141208
0.000156213
9.52559e-05
9.59754e-05
3.90606e-05
4.13966e-05
7.34829e-05
7.14074e-05
2.52986e-07
2.81905e-07
2.88054e-07
3.22055e-07
7.90203e-08
8.84467e-08
6.79989e-08
6.06354e-08
9.6552e-09
1.07072e-08
7.61764e-09
7.68994e-09
1.25138e-08
1.11733e-08
2.84241e-07
3.13856e-07
6.82465e-07
6.79971e-07
1.19227e-06
1.17979e-06
5.50896e-07
5.56203e-07
1.29719e-07
1.42445e-07
3.38294e-07
3.76083e-07
3.69493e-07