/*--------------------------------*- C++ -*----------------------------------*\
  =========                 |
  \\      /  F ield         | OpenFOAM: The Open Source CFD Toolbox
   \\    /   O peration     | Website:  https://openfoam.org
    \\  /    A nd           | Version:  7
     \\/     M anipulation  |
\*---------------------------------------------------------------------------*/
FoamFile
{
    version     2.0;
    format      ascii;
    class       volScalarField;
    location    "360";
    object      T;
}
// * * * * * * * * * * * * * * * * * * * * * * * * * * * * * * * * * * * * * //

dimensions      [0 0 0 1 0 0 0];

internalField   nonuniform List<scalar> 
238806
(
0.250662
0.248907
0.223333
0.221794
0.225598
0.242977
0.243365
0.250568
0.2524
0.220196
0.21875
0.229778
0.188871
0.187439
0.187902
0.192775
0.21771
0.215703
0.265881
0.266256
0.199259
0.196637
0.19244
0.191186
0.188256
0.220716
0.218184
0.217599
0.212019
0.212782
0.26506
0.26619
0.202028
0.205911
0.209551
0.213087
0.000633521
0.000623644
0.222424
0.224409
0.221564
0.217336
0.261417
0.262398
0.264963
0.264572
0.184658
0.18951
0.209739
0.21347
0.230491
0.23166
0.192385
0.190905
0.00623116
0.0062731
0.221849
0.223945
0.22401
0.228579
0.226466
0.225622
0.225655
0.224837
0.227418
0.263887
0.263664
0.254262
0.252764
0.24259
0.240342
0.201041
0.197164
0.210902
0.20731
0.223139
0.22138
0.209423
0.212929
0.0383267
0.0384855
0.213682
0.21758
0.25059
0.251518
0.233669
0.231174
0.210864
0.21289
0.215035
0.213099
0.231371
0.228707
0.258242
0.257423
0.2238
0.226502
0.224534
0.221165
0.217892
0.263216
0.254902
0.253798
0.252244
0.252638
0.172617
0.169636
0.205497
0.202079
0.203544
0.199639
0.22249
0.224734
0.22868
0.227571
0.190028
0.193571
0.000600204
0.000602592
0.000593293
0.186886
0.181877
0.247906
0.246901
0.244896
0.245268
0.183321
0.182786
0.206736
0.207931
0.226591
0.212332
0.21061
0.212757
0.230781
0.233608
0.257759
0.259011
0.196855
0.194034
0.195242
0.197227
0.227895
0.258872
0.257197
0.258249
0.257213
0.251976
0.253092
0.245843
0.244362
0.236157
0.234696
0.174817
0.171243
0.196795
0.193616
0.198444
0.194616
0.196033
0.193483
0.220085
0.2184
0.231679
0.23066
0.208709
0.212271
0.0465615
0.0463951
0.000636259
0.000626349
0.210622
0.214282
0.115301
0.11455
0.114579
0.249723
0.248741
0.227968
0.226805
0.177556
0.177528
0.208249
0.213442
0.215758
0.215094
0.251094
0.250632
0.259398
0.26059
0.261183
0.26219
0.249957
0.248717
0.223174
0.225719
0.226439
0.2074
0.207902
0.223621
0.222337
0.264643
0.26533
0.257552
0.256195
0.255948
0.254495
0.236456
0.233705
0.242132
0.243606
0.141303
0.142403
0.165062
0.161444
0.181473
0.185486
0.19407
0.198097
0.204745
0.208242
0.222138
0.219816
0.226843
0.2289
0.227777
0.228709
0.209318
0.212874
0.0745422
0.0768601
0.0187659
0.0195659
0.0195988
0.0204573
0.00402107
0.00380054
0.245338
0.248155
0.235338
0.239668
0.171457
0.166773
0.100753
0.0988844
0.246032
0.245077
0.232001
0.233127
0.227856
0.225232
0.215093
0.212536
0.193475
0.194753
0.219835
0.222525
0.257553
0.25917
0.258538
0.259885
0.258936
0.260103
0.214993
0.215273
0.247403
0.249049
0.223518
0.222157
0.200587
0.196603
0.230192
0.205808
0.236715
0.235546
0.238709
0.263977
0.263213
0.261234
0.260234
0.255563
0.256625
0.247801
0.249911
0.2483
0.248452
0.243158
0.242372
0.162208
0.160015
0.175518
0.177896
0.162535
0.159049
0.172487
0.168465
0.190614
0.186446
0.195604
0.191405
0.195765
0.192007
0.189856
0.188351
0.214412
0.211485
0.222439
0.221437
0.226079
0.224212
0.190907
0.1915
0.205145
0.20575
0.204609
0.201215
0.0484533
0.0499537
0.0637766
0.0658519
0.0423264
0.0408527
0.0371178
0.0369705
0.0159597
0.0160092
0.00379809
0.00401986
0.000585861
0.207594
0.210945
0.181449
0.186168
0.0069312
0.00656045
0.161979
0.164937
0.113949
0.112609
0.244168
0.242511
0.246628
0.246998
0.229423
0.230577
0.223217
0.220711
0.203933
0.204468
0.202732
0.201411
0.243181
0.245923
0.255938
0.258396
0.255249
0.253866
0.253784
0.260361
0.259225
0.220723
0.221025
0.238166
0.24047
0.246063
0.247956
0.216472
0.213474
0.190315
0.239007
0.23628
0.216421
0.220144
0.226441
0.228777
0.228772
0.226474
0.251983
0.250355
0.263045
0.263865
0.261185
0.260844
0.260486
0.259129
0.259002
0.257479
0.222691
0.225503
0.231299
0.233977
0.250507
0.250021
0.251991
0.25116
0.243697
0.243602
0.241241
0.239769
0.232865
0.230227
0.145924
0.144673
0.178534
0.181269
0.159985
0.156628
0.170037
0.166148
0.179725
0.175363
0.186992
0.182408
0.193021
0.189342
0.191801
0.193203
0.211542
0.208662
0.224555
0.225608
0.213249
0.21663
0.20234
0.205887
0.201581
0.202178
0.207959
0.0565843
0.0582003
0.0745337
0.0768413
0.059537
0.0576135
0.0539354
0.0558184
0.019539
0.0187355
0.0220958
0.0228874
0.0174238
0.0167058
0.00147165
0.00147592
0.0141415
0.0147475
0.230135
0.23209
0.229329
0.177231
0.175305
0.177526
0.175001
0.176214
0.177982
0.00658144
0.00662535
0.129415
0.127063
0.117294
0.116016
0.113649
0.113543
0.162057
0.162577
0.246986
0.248261
0.243515
0.242463
0.236317
0.23667
0.230482
0.217545
0.217554
0.215008
0.200372
0.196062
0.196736
0.197756
0.253797
0.254926
0.255624
0.256933
0.256041
0.257085
0.256391
0.260755
0.261798
0.209014
0.209279
0.220068
0.217258
0.226156
0.223477
0.247756
0.245986
0.220547
0.223663
0.210075
0.2119
0.209986
0.192383
0.203346
0.203834
0.202051
0.200642
0.20991
0.226157
0.246213
0.248234
0.257405
0.256138
0.26256
0.261722
0.260294
0.261774
0.26393
0.26298
0.258776
0.259782
0.227831
0.225115
0.238574
0.235766
0.244338
0.246795
0.246013
0.246136
0.250004
0.2485
0.238413
0.238458
0.239877
0.240647
0.232031
0.23346
0.135986
0.13744
0.159148
0.163514
0.187689
0.190696
0.172531
0.175614
0.165964
0.169306
0.173841
0.177532
0.167565
0.163811
0.177323
0.173058
0.184543
0.18005
0.196502
0.199764
0.190222
0.186633
0.201159
0.201915
0.198328
0.200352
0.208583
0.205763
0.216929
0.219922
0.212412
0.21155
0.229367
0.229724
0.219531
0.21707
0.214329
0.21124
0.205995
0.202429
0.197797
0.194359
0.0360607
0.0348867
0.0499465
0.0484489
0.0638238
0.0659087
0.0449341
0.0447767
0.0408439
0.0423238
0.0327529
0.0316316
0.020676
0.0205819
0.0223243
0.022324
0.0166559
0.0173752
0.00119345
0.00112233
0.000624212
0.000614269
0.00783707
0.00786205
0.00357061
0.00357491
0.216967
0.212834
0.247465
0.246328
0.168551
0.166532
0.206653
0.202452
0.202213
0.207192
0.179824
0.184431
0.00805555
0.00810556
0.000848428
0.000834687
0.0903155
0.0895912
0.105755
0.103863
0.103533
0.104985
0.112824
0.111875
0.112503
0.114665
0.242092
0.240232
0.247516
0.249476
0.250836
0.252425
0.242326
0.244319
0.238668
0.239044
0.228956
0.231517
0.223615
0.220703
0.172029
0.172351
0.208634
0.206091
0.207154
0.201703
0.195891
0.237101
0.236545
0.25234
0.25131
0.25679
0.255168
0.255668
0.254926
0.260144
0.261233
0.205949
0.206208
0.224417
0.221787
0.217894
0.218183
0.244064
0.245732
0.249457
0.251184
0.211751
0.208771
0.208907
0.220677
0.219158
0.217169
0.231487
0.233372
0.235177
0.233662
0.231125
0.217741
0.213949
0.196788
0.231748
0.250072
0.248232
0.262343
0.261408
0.262288
0.262588
0.261821
0.260418
0.229693
0.229064
0.22706
0.230823
0.228494
0.243963
0.246156
0.247718
0.245315
0.249178
0.251576
0.249142
0.249966
0.246549
0.244769
0.234529
0.235256
0.24107
0.241139
0.23796
0.235448
0.156216
0.158252
0.14682
0.145266
0.1443
0.145072
0.161718
0.163789
0.183879
0.187371
0.184665
0.187582
0.175408
0.178595
0.166519
0.163293
0.176413
0.180218
0.174916
0.170766
0.182131
0.177695
0.199326
0.202667
0.195234
0.196619
0.192764
0.190287
0.21641
0.214123
0.2172
0.214231
0.216928
0.215301
0.223366
0.223083
0.219208
0.221754
0.221143
0.21483
0.218525
0.198873
0.198807
0.206343
0.209799
0.195887
0.199383
0.163812
0.166728
0.0360201
0.0359863
0.0456101
0.0441959
0.0476206
0.0478549
0.0697969
0.0676565
0.0576924
0.0596267
0.0538531
0.0557416
0.0195056
0.0186983
0.0279502
0.0278644
0.0292245
0.0292703
0.0235528
0.0244053
0.023846
0.0247265
0.019274
0.0200466
0.0189336
0.0181653
0.00509337
0.00536829
0.00139083
0.00148085
0.00099466
0.000937326
0.000628556
0.000618677
0.000617129
0.000606967
0.00745318
0.00744189
0.000600895
0.000613008
0.00060209
0.208804
0.210255
0.24717
0.244533
0.243748
0.25048
0.247791
0.256716
0.259597
0.176613
0.174776
0.196438
0.199082
0.200034
0.20394
0.224699
0.222645
0.22067
0.222867
0.126965
0.121621
0.00448689
0.00425221
0.0068586
0.00690327
0.00445121
0.00448308
0.00174602
0.00174952
0.112952
0.115629
0.134134
0.131773
0.108713
0.106684
0.101956
0.100029
0.108353
0.106906
0.113784
0.11384
0.113034
0.115807
0.114829
0.231436
0.233805
0.246059
0.244217
0.248104
0.24963
0.248416
0.244542
0.245478
0.246147
0.237835
0.239189
0.229126
0.228738
0.233983
0.236076
0.218026
0.220826
0.176849
0.177624
0.212131
0.209555
0.204451
0.209835
0.234478
0.233368
0.253047
0.254028
0.252678
0.252326
0.255373
0.253979
0.259647
0.258436
0.21203
0.212303
0.219074
0.216285
0.233814
0.236417
0.244214
0.242425
0.250653
0.252226
0.216486
0.219486
0.219022
0.189868
0.186754
0.191674
0.210025
0.208077
0.202651
0.20049
0.199691
0.195137
0.232824
0.23603
0.219691
0.222923
0.260579
0.262323
0.259527
0.258537
0.260767
0.259672
0.261652
0.262622
0.23532
0.234568
0.232728
0.241204
0.243677
0.248263
0.245908
0.252727
0.252512
0.246522
0.247989
0.235638
0.235666
0.237285
0.238759
0.140439
0.138879
0.138814
0.140104
0.149043
0.14815
0.168552
0.166351
0.180166
0.190675
0.19377
0.178076
0.175436
0.168615
0.172073
0.182872
0.178959
0.188915
0.193122
0.204646
0.205435
0.186136
0.183807
0.196971
0.194998
0.206986
0.204852
0.217026
0.219344
0.213676
0.212101
0.215833
0.216408
0.232409
0.23276
0.232742
0.232376
0.223767
0.222158
0.222093
0.195335
0.195307
0.20772
0.211258
0.197108
0.200647
0.0349825
0.0349298
0.0348502
0.0348188
0.0427424
0.0427395
0.0469838
0.0469857
0.070601
0.0726219
0.0677868
0.0699353
0.0577482
0.0596935
0.046703
0.0450702
0.0438483
0.0438439
0.0315874
0.0316038
0.0269437
0.0268614
0.0326874
0.0327441
0.0161363
0.0154734
0.0223247
0.0222351
0.0213716
0.0205853
0.0246529
0.0255616
0.0239797
0.0248699
0.0164082
0.0157219
0.0194362
0.0202423
0.0181192
0.0188916
0.0117893
0.0117589
0.0013857
0.00138123
0.0009344
0.000991823
0.000630956
0.000621088
0.000821077
0.000874609
0.00393879
0.00373378
0.0074353
0.00782261
0.0035614
0.00356611
0.00252914
0.00253463
0.236123
0.23874
0.238844
0.215513
0.21134
0.236424
0.23328
0.23828
0.242142
0.101091
0.097662
0.245647
0.242835
0.164313
0.162284
0.172845
0.170868
0.209399
0.204855
0.213954
0.211371
0.212811
0.214454
0.143073
0.147531
0.116022
0.116476
0.00126611
0.00120301
0.00859599
0.00864874
0.00653802
0.00649514
0.00694846
0.00699433
0.00119806
0.00119975
0.00240868
0.00242711
0.165556
0.168608
0.0697993
0.0702793
0.0936617
0.0948879
0.156609
0.15967
0.124937
0.127203
0.102599
0.104428
0.109788
0.108274
0.109277
0.11073
0.114669
0.11328
0.112122
0.160998
0.245636
0.243728
0.252633
0.250878
0.241386
0.240127
0.237954
0.240202
0.231336
0.231706
0.223666
0.226204
0.223135
0.225813
0.172578
0.172631
0.169137
0.183559
0.181892
0.220339
0.217759
0.19971
0.197857
0.239619
0.240945
0.240635
0.239231
0.249147
0.248392
0.253726
0.257972
0.256612
0.253986
0.253215
0.217038
0.214481
0.210501
0.211427
0.222802
0.225455
0.242423
0.240404
0.230861
0.231715
0.233756
0.222709
0.225181
0.214527
0.217847
0.202719
0.206199
0.20541
0.218231
0.220561
0.217228
0.213699
0.211911
0.206308
0.204263
0.197937
0.193536
0.229282
0.251555
0.251122
0.257635
0.258037
0.260071
0.261036
0.259841
0.259807
0.240159
0.240842
0.233371
0.231711
0.241633
0.243989
0.246026
0.248107
0.244746
0.245549
0.250468
0.250651
0.23801
0.237259
0.14703
0.145211
0.153797
0.15217
0.143338
0.141926
0.145697
0.146307
0.173167
0.170901
0.173534
0.1759
0.184479
0.181086
0.181612
0.184439
0.183966
0.188067
0.19158
0.190995
0.186669
0.184817
0.201617
0.203695
0.205543
0.202784
0.214924
0.21583
0.210348
0.208823
0.219895
0.219397
0.229741
0.229401
0.226211
0.226579
0.22651
0.224836
0.195053
0.194464
0.191812
0.191841
0.202868
0.204182
0.0361088
0.0361676
0.0413832
0.0413794
0.0441276
0.0455433
0.0563703
0.0581156
0.0490635
0.0493962
0.0741631
0.0746357
0.072133
0.0719866
0.0655626
0.0635119
0.0616042
0.0615034
0.0537309
0.055621
0.0453839
0.047012
0.0193457
0.0185896
0.0327228
0.032705
0.0342517
0.0330277
0.034066
0.0340937
0.0304675
0.0304962
0.0291709
0.0188737
0.0196755
0.0205096
0.0213652
0.0224456
0.0214195
0.0206294
0.0245767
0.0254793
0.0256407
0.0257181
0.0232528
0.0232578
0.0223328
0.0214349
0.0169665
0.0176766
0.0193508
0.0201358
0.0180708
0.0188445
0.0123448
0.0128987
0.0148723
0.0148999
0.00126326
0.00118382
0.00153788
0.00144262
0.00105336
0.00105621
0.000704248
0.000673509
0.000626311
0.000616406
0.000733945
0.000696798
0.00394532
0.0037412
0.00835557
0.00835858
0.00533913
0.00532508
0.00316335
0.00315787
0.0033701
0.00336485
0.00166311
0.00166194
0.000616409
0.000616201
0.232979
0.236058
0.221087
0.219397
0.238663
0.23619
0.228855
0.226063
0.24315
0.241498
0.239438
0.193319
0.194828
0.263948
0.265945
0.16869
0.164956
0.166675
0.179117
0.180988
0.200269
0.195814
0.226953
0.226663
0.228691
0.229483
0.21787
0.218403
0.207599
0.120716
0.122716
0.121114
0.12641
0.0039817
0.00400657
0.00102234
0.00100503
0.00572453
0.00569632
0.00772864
0.00777159
0.0061895
0.00614837
0.00126622
0.00127128
0.00228893
0.00227148
0.14812
0.151331
0.157813
0.160836
0.0722332
0.0717575
0.0752328
0.076995
0.0829278
0.0831306
0.0889917
0.0885229
0.129475
0.131751
0.103259
0.101271
0.0971834
0.0955121
0.110839
0.109276
0.106424
0.107849
0.115256
0.116432
0.238344
0.236282
0.240141
0.238205
0.250465
0.252264
0.247832
0.249427
0.236893
0.235474
0.233868
0.234223
0.229092
0.231621
0.226202
0.228551
0.189643
0.189356
0.18592
0.214623
0.213968
0.217378
0.215004
0.204483
0.202152
0.238526
0.236265
0.252064
0.250222
0.256066
0.257656
0.204504
0.205379
0.214373
0.213424
0.251641
0.252973
0.24067
0.242426
0.246241
0.24429
0.209308
0.205551
0.206959
0.219379
0.217585
0.22538
0.22763
0.213463
0.21464
0.216706
0.22291
0.200802
0.201233
0.140842
0.141535
0.223144
0.225826
0.215869
0.21182
0.215271
0.199286
0.196846
0.195536
0.203899
0.20213
0.253798
0.254684
0.254514
0.253313
0.259285
0.259665
0.26499
0.266111
0.265008
0.256512
0.256517
0.259546
0.259028
0.242795
0.243433
0.234383
0.236191
0.236583
0.239131
0.245429
0.242958
0.247815
0.246998
0.150543
0.148582
0.13725
0.134459
0.150505
0.148794
0.158726
0.157013
0.15726
0.153631
0.153797
0.155139
0.169424
0.16794
0.172008
0.170973
0.181551
0.178262
0.194277
0.194962
0.18825
0.19014
0.189465
0.187061
0.208023
0.210212
0.202432
0.199741
0.218225
0.219177
0.220019
0.219778
0.226611
0.226294
0.22929
0.227542
0.19861
0.19802
0.079081
0.0788996
0.0400876
0.0400608
0.0392986
0.0380044
0.045678
0.0442621
0.0499641
0.0484702
0.0581721
0.056358
0.0395456
0.0393608
0.0580403
0.0561357
0.0694384
0.0691534
0.0634858
0.0658052
0.0678866
0.0700365
0.0577813
0.059751
0.0636235
0.0656839
0.061682
0.0535622
0.055448
0.0518973
0.0557334
0.0538976
0.0470122
0.0454056
0.0158071
0.0151551
0.0172624
0.0179984
0.0247976
0.0248301
0.0305582
0.0306008
0.0374803
0.0376491
0.036818
0.0381615
0.0288855
0.0287995
0.0316294
0.0316591
0.0271943
0.0272146
0.0182041
0.017468
0.0214514
0.0215708
0.0253021
0.0253933
0.0229408
0.0221295
0.0247987
0.0239124
0.0261687
0.0261843
0.0214171
0.0214022
0.0177259
0.0170119
0.0186552
0.0185844
0.0205671
0.0197337
0.0159119
0.0166076
0.00720428
0.00684712
0.0141682
0.0147814
0.0136197
0.0136014
0.0148501
0.00423993
0.0040162
0.000928994
0.000991078
0.00140268
0.00149273
0.000933273
0.000989766
0.000930349
0.000987725
0.000826963
0.000876697
0.000671183
0.00070202
0.000642201
0.000644228
0.000694084
0.000731655
0.000618718
0.000608616
0.0141436
0.0147534
0.00545591
0.0054464
0.00425011
0.00424572
0.00474824
0.00449479
0.00299063
0.00298327
0.00335973
0.00335467
0.00189543
0.00189874
0.000950523
0.000950167
0.000591912
0.000585849
0.156455
0.157497
0.214536
0.218114
0.215859
0.224731
0.222911
0.227958
0.226508
0.225432
0.233908
0.249025
0.167694
0.164896
0.219398
0.216749
0.261951
0.262561
0.239954
0.242463
0.170585
0.172418
0.204614
0.207585
0.191685
0.195932
0.2278
0.225081
0.228611
0.223252
0.224951
0.225751
0.222775
0.194003
0.197707
0.198116
0.0942041
0.0939478
0.139968
0.144248
0.0693348
0.0718189
0.0092513
0.00924189
0.00227441
0.00241837
0.00102937
0.00101197
0.0051316
0.00540765
0.0115505
0.0115058
0.00736528
0.00732425
0.00733296
0.00738061
0.00527556
0.00531225
0.00393859
0.00396611
0.000857158
0.000843066
0.00190727
0.00192273
0.0008471
0.000805777
0.167094
0.170161
0.163848
0.166868
0.093163
0.0909188
0.085777
0.0833825
0.081357
0.0803637
0.0817287
0.0903129
0.0908248
0.145774
0.142782
0.116773
0.114763
0.104646
0.102596
0.0986969
0.0969358
0.0975421
0.0990688
0.120107
0.118498
0.108956
0.107481
0.110803
0.109403
0.158082
0.158205
0.240449
0.238383
0.238214
0.236007
0.249158
0.248659
0.251013
0.252568
0.234496
0.233027
0.240895
0.24128
0.229038
0.226446
0.16681
0.167351
0.189573
0.211675
0.25462
0.255541
0.208427
0.207525
0.254276
0.240618
0.238678
0.244541
0.242349
0.226246
0.228005
0.22445
0.227284
0.229199
0.229257
0.209943
0.204939
0.205629
0.185377
0.170094
0.170784
0.225595
0.228562
0.213695
0.215656
0.204385
0.208149
0.19129
0.248627
0.246081
0.242517
0.252697
0.252762
0.253345
0.251794
0.255522
0.254031
0.262677
0.262705
0.265182
0.264641
0.254679
0.254638
0.257422
0.25795
0.240342
0.241765
0.237392
0.238127
0.241578
0.239086
0.166537
0.164379
0.157792
0.155537
0.146575
0.14334
0.14022
0.148312
0.149742
0.147086
0.143402
0.146977
0.150891
0.161207
0.16428
0.159829
0.166341
0.205481
0.206959
0.197688
0.198414
0.182768
0.180523
0.211119
0.213359
0.216583
0.216388
0.224832
0.225579
0.0705432
0.0688365
0.103305
0.102928
0.0233007
0.0241953
0.0617225
0.0637137
0.0581601
0.0565133
0.0414495
0.0415124
0.0500779
0.0485855
0.045543
0.0441291
0.0470059
0.0646014
0.0662526
0.0422188
0.0424386
0.0405658
0.0391741
0.0577612
0.0594434
0.0700337
0.0720269
0.0723347
0.0719158
0.0722599
0.0721551
0.0743871
0.076702
0.0722353
0.0617362
0.0617675
0.0637111
0.0657791
0.0533543
0.0552276
0.0521043
0.0520189
0.0407244
0.0422161
0.0454174
0.0470322
0.0170862
0.0164075
0.0179697
0.017237
0.023877
0.0230517
0.0247742
0.0362665
0.0362443
0.0280412
0.0270318
0.0332681
0.0331496
0.035371
0.0352257
0.0353412
0.0353671
0.0324648
0.0325473
0.0304321
0.0315924
0.0282511
0.0282753
0.0271715
0.0159758
0.0166589
0.0197284
0.0189163
0.0244956
0.0236402
0.0205453
0.0213208
0.0237797
0.0237126
0.0251134
0.0260483
0.0242014
0.0242079
0.0232591
0.0163608
0.0156775
0.0192064
0.0199717
0.0185181
0.019697
0.0205387
0.0158162
0.0165085
0.0173267
0.0144687
0.014461
0.0141374
0.0147509
0.0142047
0.0141911
0.0135964
0.0142154
0.00538075
0.00510535
0.0020854
0.00207337
0.00103144
0.00104711
0.000996085
0.00139658
0.00148649
0.00135307
0.00127017
0.00111943
0.00119043
0.00104882
0.00105088
0.000825527
0.000875653
0.000669081
0.000700068
0.00064642
0.000648796
0.000879405
0.000825019
0.000695398
0.000732802
0.000657533
0.000631673
0.0108402
0.0103573
0.00920701
0.00877385
0.00520177
0.0051915
0.00606747
0.00606445
0.0076183
0.00798215
0.00503907
0.00504853
0.00425322
0.00425296
0.00314859
0.00333099
0.00297653
0.00297051
0.0026799
0.00268639
0.0019021
0.00190427
0.000593424
0.000592802
0.000591774
0.000589034
0.00058618
0.144164
0.141224
0.257209
0.254881
0.222326
0.224892
0.221382
0.213532
0.223203
0.224182
0.233956
0.229959
0.227067
0.229751
0.100834
0.0974372
0.199155
0.197596
0.243151
0.240143
0.259715
0.25992
0.264374
0.266083
0.257609
0.258846
0.246444
0.245208
0.179865
0.184596
0.201797
0.204539
0.191525
0.189365
0.187327
0.226885
0.223032
0.223704
0.23886
0.242295
0.220245
0.221807
0.216611
0.248542
0.25075
0.251098
0.11555
0.117007
0.118768
0.138275
0.132515
0.0481369
0.0485084
0.0281302
0.0280376
0.00618704
0.00620917
0.00235488
0.00250309
0.0022624
0.00240564
0.00103622
0.00101873
0.00151583
0.00142637
0.00543458
0.00515728
0.0109308
0.0109903
0.00697766
0.0069385
0.00668712
0.00664677
0.00773531
0.00778489
0.00546518
0.00542823
0.00471231
0.00474584
0.00124829
0.00125789
0.000917101
0.000882446
0.000831404
0.000818159
0.00206704
0.00208099
0.00184363
0.0018523
0.00118339
0.00111617
0.000703906
0.000692258
0.16088
0.164008
0.159022
0.156061
0.0918223
0.0941171
0.082779
0.0851333
0.0975855
0.0988709
0.0839997
0.0832191
0.0914696
0.0922385
0.126736
0.123729
0.130761
0.132701
0.106103
0.103989
0.10523
0.10719
0.0978672
0.096154
0.100576
0.102063
0.118364
0.119774
0.112093
0.110471
0.111857
0.110415
0.107984
0.106553
0.153672
0.15131
0.243217
0.244043
0.242218
0.236147
0.233952
0.247409
0.246781
0.235591
0.165461
0.157027
0.159052
0.251784
0.251964
0.253103
0.238544
0.236268
0.213738
0.216245
0.235361
0.232923
0.231953
0.220834
0.199248
0.165881
0.166055
0.186595
0.182277
0.181517
0.222574
0.219723
0.206117
0.20795
0.241403
0.239089
0.238574
0.249536
0.248754
0.256472
0.258651
0.254542
0.255293
0.253831
0.252328
0.26129
0.261329
0.263357
0.263878
0.253912
0.254439
0.258216
0.258239
0.239068
0.237551
0.15246
0.154335
0.153251
0.149889
0.141965
0.143648
0.1554
0.151112
0.150072
0.149549
0.168703
0.203527
0.20209
0.208116
0.20894
0.191638
0.193566
0.223291
0.222857
0.115925
0.118007
0.14337
0.142782
0.100824
0.100654
0.0258784
0.025824
0.0256808
0.0256479
0.0634044
0.0653137
0.049979
0.0484761
0.0496197
0.0511887
0.0637047
0.065321
0.0387546
0.0387482
0.0427658
0.041407
0.0470499
0.0471197
0.0455661
0.0441527
0.0642952
0.0659194
0.0437079
0.0439471
0.0407696
0.0409712
0.0497034
0.0512647
0.0688166
0.0707703
0.0694316
0.0714045
0.0715291
0.0736845
0.0662695
0.0638994
0.0751037
0.0755574
0.0722921
0.0723014
0.0765339
0.0742304
0.0597353
0.0577785
0.0517364
0.0515405
0.0539999
0.0558664
0.0422689
0.0407799
0.0454107
0.0470327
0.0158371
0.015183
0.0157371
0.0150919
0.0179363
0.0172087
0.0238864
0.0239093
0.0276974
0.0277518
0.0350334
0.0350542
0.0330339
0.0318973
0.0346639
0.0345357
0.0343827
0.0345098
0.0378204
0.0379918
0.0390184
0.0391191
0.0278391
0.0277583
0.0302141
0.0301409
0.0303892
0.0303387
0.0327912
0.0328292
0.0271455
0.0271142
0.0293417
0.0293688
0.0190224
0.0197822
0.0166942
0.0160108
0.0197762
0.0189526
0.024941
0.025021
0.0230568
0.0222273
0.0213371
0.0205551
0.0206851
0.0214777
0.0250655
0.0259967
0.0251721
0.0251825
0.0164583
0.0157687
0.0191477
0.0199084
0.0179607
0.0187258
0.0196537
0.0205049
0.017223
0.0172758
0.00720469
0.00684628
0.0119267
0.0114071
0.0135827
0.0135497
0.0130276
0.0130535
0.0142298
0.0142528
0.00425672
0.00403211
0.00179031
0.0016835
0.000681573
0.000676502
0.00120842
0.0012891
0.00130066
0.00129591
0.00123345
0.00131226
0.00125546
0.00133601
0.00126715
0.00135041
0.00111669
0.00118736
0.000989467
0.000932028
0.00063918
0.000629207
0.000667168
0.000698338
0.000823734
0.000878438
0.000692849
0.000730523
0.000614274
0.000603989
0.000611814
0.000601403
0.0118259
0.0118153
0.0103505
0.0108327
0.00876675
0.00919554
0.00518247
0.00517377
0.00705029
0.00705985
0.00764319
0.00799728
0.00476456
0.00476931
0.00502408
0.0053044
0.00379285
0.00401729
0.00425273
0.00425251
0.00316923
0.00317547
0.00236411
0.00238305
0.00177842
0.00177778
0.00105552
0.00112613
0.00125016
0.00125079
0.00069101
0.000689892
0.000603435
0.138285
0.135441
0.164233
0.15988
0.252911
0.250367
0.208325
0.208897
0.230757
0.227248
0.219267
0.217596
0.236876
0.238068
0.240424
0.239647
0.231555
0.234004
0.249797
0.252822
0.14219
0.140232
0.159731
0.161802
0.201319
0.203983
0.217839
0.214002
0.242026
0.244975
0.257846
0.257739
0.257693
0.258616
0.264571
0.266169
0.256625
0.254842
0.265098
0.264018
0.249127
0.248456
0.191874
0.188597
0.189684
0.20161
0.193756
0.198125
0.212206
0.216808
0.227249
0.230127
0.232545
0.235239
0.237558
0.233062
0.200697
0.20252
0.197621
0.233544
0.233542
0.208404
0.209765
0.111401
0.113501
0.114642
0.116643
0.138688
0.135673
0.120226
0.125415
0.101866
0.102187
0.0701446
0.0719498
0.0912007
0.0902403
0.00653753
0.0069073
0.00701931
0.0074248
0.00354119
0.00375572
0.00332354
0.00312954
0.00119683
0.00125964
0.00105313
0.00106032
0.00134373
0.0012681
0.00648199
0.00681947
0.0103254
0.0102959
0.0136993
0.0136243
0.00937189
0.00942625
0.0044087
0.00462856
0.00728463
0.00768737
0.00768644
0.00763819
0.00815607
0.00820743
0.00478182
0.0047498
0.00574021
0.00577869
0.00498688
0.00502204
0.00295693
0.00297824
0.00151653
0.00152617
0.000873091
0.000906877
0.0024636
0.0024474
0.00219138
0.00220697
0.00195102
0.00196279
0.00173368
0.00108902
0.00102849
0.000709474
0.000697871
0.162499
0.159423
0.0707783
0.0712951
0.106604
0.109183
0.092499
0.0951323
0.072505
0.070584
0.102425
0.103812
0.0979746
0.0992662
0.0858581
0.084878
0.0857841
0.0864259
0.0862332
0.0863092
0.0916548
0.0913739
0.127184
0.124134
0.128211
0.129988
0.12003
0.117698
0.111366
0.113219
0.11275
0.110735
0.0996619
0.0978496
0.0962743
0.0946695
0.102466
0.10095
0.105109
0.103647
0.116858
0.1184
0.113918
0.112387
0.109785
0.111203
0.145138
0.149172
0.157142
0.240273
0.241859
0.157882
0.155536
0.211875
0.20922
0.234182
0.236637
0.254094
0.19192
0.19668
0.204446
0.218623
0.221562
0.229152
0.151701
0.156181
0.16488
0.169037
0.180424
0.174893
0.220318
0.222447
0.244043
0.241632
0.245635
0.250834
0.254298
0.253688
0.251607
0.250063
0.256812
0.255142
0.260541
0.261049
0.263952
0.263952
0.256251
0.255718
0.160265
0.162265
0.152035
0.154144
0.15243
0.153676
0.200071
0.198669
0.120051
0.117849
0.171635
0.174862
0.124585
0.127933
0.0805861
0.0828293
0.0815266
0.0813297
0.0213892
0.0213253
0.0246257
0.024603
0.0326232
0.0315332
0.0399814
0.0386243
0.0672566
0.0453679
0.0454658
0.0414203
0.041392
0.0388246
0.0375486
0.0648749
0.066576
0.0621388
0.0624662
0.0650989
0.0649506
0.0374843
0.0374771
0.0400549
0.0400497
0.048514
0.050006
0.0536006
0.052042
0.065883
0.0676498
0.0452389
0.0454993
0.0419965
0.0399682
0.0386256
0.0515846
0.050001
0.0682004
0.0701343
0.0638287
0.0656564
0.0677152
0.0673194
0.0711071
0.0731768
0.0662278
0.0637802
0.0740637
0.0763242
0.0680107
0.0701342
0.0744919
0.0768117
0.0418259
0.0416838
0.0480611
0.0497761
0.0485008
0.0502345
0.0486509
0.0503802
0.0539903
0.055847
0.0503627
0.0486646
0.0453381
0.0469705
0.0438352
0.0186981
0.0195023
0.0157601
0.0151124
0.0157451
0.015099
0.0214616
0.0216052
0.0209757
0.0229952
0.0230087
0.0267017
0.0267494
0.0364176
0.0363539
0.0287368
0.0288137
0.0327091
0.0327003
0.0367403
0.0368692
0.0335887
0.0324128
0.0363469
0.0361916
0.0341183
0.033984
0.0366619
0.0365043
0.0380114
0.0380299
0.0268322
0.026756
0.0313601
0.0312823
0.031547
0.031493
0.0328584
0.0270752
0.028103
0.0282229
0.0293092
0.0161982
0.0155279
0.0167282
0.0160451
0.018227
0.017496
0.0220743
0.0213336
0.0241024
0.0240198
0.0234372
0.0243027
0.022174
0.0229968
0.0222882
0.0231208
0.0242234
0.024175
0.0225419
0.0220085
0.0226823
0.0178998
0.0171686
0.0155953
0.0162725
0.0184576
0.0184037
0.019524
0.0203645
0.0165583
0.0158639
0.013243
0.0132507
0.012011
0.011499
0.0134714
0.0140653
0.0124829
0.0121273
0.0125699
0.012986
0.0148078
0.0148295
0.00891726
0.00849046
0.00753521
0.00793421
0.00431195
0.0045501
0.00376264
0.00377503
0.00184069
0.00173393
0.000875073
0.000915409
0.000908154
0.0013724
0.0014632
0.00137756
0.00146812
0.00122047
0.0012154
0.00131845
0.00124006
0.00144153
0.00154262
0.00126368
0.00134667
0.00111412
0.00118415
0.000678924
0.000709653
0.000651372
0.000654164
0.000819107
0.000872162
0.000822384
0.000876394
0.000775877
0.000776654
0.000620424
0.00061038
0.000615649
0.000605426
0.000612997
0.00060265
0.0146223
0.0146285
0.0108474
0.0103641
0.0133609
0.0133587
0.00546517
0.00547462
0.00780624
0.00781316
0.00706267
0.0065197
0.00619356
0.0045026
0.00450394
0.00529031
0.00501339
0.00401863
0.00379554
0.00336947
0.00355623
0.00266087
0.00267155
0.00219298
0.00217903
0.0017759
0.00177367
0.00109407
0.00109242
0.00060401
0.000604551
0.00142518
0.0014254
0.00073409
0.0007328
0.085627
0.0876655
0.215197
0.217311
0.21378
0.174235
0.169222
0.24785
0.250532
0.236835
0.233875
0.235492
0.239072
0.224345
0.227356
0.219845
0.22027
0.218869
0.217465
0.222352
0.241856
0.0897307
0.0870099
0.153758
0.153431
0.168787
0.171739
0.166373
0.167267
0.227723
0.22448
0.21024
0.20663
0.209404
0.2119
0.220742
0.216888
0.244958
0.24199
0.238958
0.255616
0.255457
0.26582
0.265945
0.259279
0.261194
0.26292
0.252859
0.251625
0.25039
0.256089
0.253913
0.259809
0.261008
0.258675
0.260978
0.166208
0.165971
0.187743
0.183482
0.194343
0.192996
0.19634
0.201288
0.198772
0.209347
0.203592
0.220828
0.224156
0.21845
0.231641
0.19827
0.192453
0.153082
0.156887
0.237988
0.225063
0.230424
0.0878167
0.0867997
0.110384
0.112451
0.118478
0.11986
0.116855
0.136546
0.13771
0.111161
0.109408
0.115232
0.0168215
0.0161217
0.0721909
0.0703803
0.0871001
0.0879794
0.0256392
0.0269002
0.0115203
0.0115033
0.0078506
0.00784503
0.00393562
0.00370852
0.00377918
0.00356328
0.00258398
0.00274613
0.00217073
0.0020409
0.00104288
0.00102529
0.00139714
0.00148511
0.00125938
0.0013346
0.00399698
0.00378268
0.00584925
0.0055531
0.00985943
0.00941656
0.0103473
0.0121295
0.0120794
0.0106392
0.0106946
0.0110493
0.00905557
0.00910969
0.0067959
0.00676124
0.00690082
0.00728587
0.00723945
0.00516658
0.00513108
0.00467886
0.00464553
0.00374158
0.00371509
0.0019296
0.0019431
0.000929996
0.000938922
0.00119043
0.0012587
0.000928137
0.000937925
0.000814892
0.000801985
0.00345674
0.00347916
0.00205221
0.00217528
0.00183124
0.00193744
0.000753736
0.000742075
0.000800025
0.00084144
0.148665
0.145597
0.154534
0.15772
0.0797937
0.0797024
0.0732776
0.0727428
0.110559
0.113142
0.111788
0.11442
0.077346
0.0750952
0.0731283
0.0711699
0.10467
0.106112
0.100192
0.101529
0.0889996
0.0900535
0.0851945
0.0860158
0.0815067
0.0811676
0.0845652
0.0846877
0.0895779
0.0895939
0.0928648
0.0928376
0.167646
0.170796
0.157759
0.154757
0.115421
0.112913
0.138874
0.136501
0.115905
0.118157
0.109833
0.111613
0.109139
0.11108
0.10671
0.104973
0.101219
0.0995546
0.0966507
0.0950161
0.10599
0.104481
0.102169
0.100672
0.12321
0.121681
0.116862
0.115206
0.111287
0.112767
0.154444
0.155046
0.153834
0.152382
0.158297
0.156449
0.154965
0.152783
0.188932
0.18665
0.211445
0.214146
0.246688
0.246323
0.245399