/*--------------------------------*- C++ -*----------------------------------*\
  =========                 |
  \\      /  F ield         | OpenFOAM: The Open Source CFD Toolbox
   \\    /   O peration     | Website:  https://openfoam.org
    \\  /    A nd           | Version:  7
     \\/     M anipulation  |
\*---------------------------------------------------------------------------*/
FoamFile
{
    version     2.0;
    format      ascii;
    class       volScalarField;
    location    "1500";
    object      T;
}
// * * * * * * * * * * * * * * * * * * * * * * * * * * * * * * * * * * * * * //

dimensions      [0 0 0 1 0 0 0];

internalField   nonuniform List<scalar> 
238806
(
0.998223
1.00482
0.969775
1.32576
1.17693
1.00671
0.997593
0.992431
0.992378
0.972894
0.994267
1.18515
1.00191
0.999502
1.23886
1.21988
0.993027
0.98608
0.990186
1.00304
0.99343
0.991299
1.15008
1.01171
1.18099
0.966476
0.978422
1.00588
1.079
1.18655
1.00242
1.00267
0.995553
1.00211
1.00239
1.00238
0.995811
0.995905
0.998202
1.0292
1.0237
1.2733
1.00049
1.00046
1.00167
0.989428
0.986466
0.97903
1.00105
0.99301
1.00176
1.00314
1.00164
0.99878
1.01142
1.01433
0.967078
0.947868
0.986464
0.95408
0.968801
1.01123
0.981113
0.993058
0.994583
1.00262
1.00086
0.993994
1.00126
1.00049
0.999039
0.999966
1.00125
0.990497
0.997422
1.005
0.995027
1.00428
1.00433
0.994698
0.996385
0.998697
0.994943
0.995616
0.989482
0.99359
0.994491
1.00655
1.03744
1.01181
1.00649
1.01359
1.00905
0.996581
0.994734
1.00445
1.00467
0.987424
0.975114
1.2867
0.989256
0.993558
0.990878
1.00141
1.00531
0.989193
0.988274
0.987935
0.99124
1.00218
0.999539
0.989785
0.996049
1.00351
1.00175
1.00212
1.0023
1.03059
1.0399
1.03617
1.05774
1.14532
0.989085
0.994408
1.007
0.997524
1.14164
1.19866
1.00359
1.11233
1.02015
0.961521
0.980776
1.29489
0.963655
0.984374
0.990788
0.99064
0.962178
1.1623
1.09401
1.2161
0.999115
0.997337
0.998292
0.992001
0.991197
0.991597
0.994574
0.992827
0.990159
0.995692
0.991188
0.991915
0.995766
0.988401
0.987878
0.997068
1.00095
0.994041
0.992055
1.0049
0.997413
0.999571
0.996952
1.0006
1.00054
1.00301
1.00105
0.988889
0.989072
0.99693
0.993778
1.07114
1.05591
1.11438
0.989122
0.995555
1.00173
0.995787
1.13802
1.19821
1.41093
0.978364
0.961597
0.984588
0.938051
1.11862
0.99637
0.997385
1.00174
1.0018
0.987293
1.03634
0.975234
0.963399
0.977488
1.17302
1.33852
1.07866
1.21369
0.994375
0.988539
0.995805
0.997312
0.994439
0.997704
0.989162
0.988283
0.990106
0.993615
0.982266
0.990553
0.997429
1.00003
1.00081
1.00019
0.980488
0.989579
0.993875
0.988797
0.994864
0.99168
0.989023
1.00377
0.996838
0.999481
1.00247
1.00242
1.00389
1.00389
0.995935
0.995955
1.00468
1.00468
0.995005
0.994998
0.988165
0.988084
1.00088
1.03378
1.08234
1.04054
1.00313
1.0027
0.990029
0.999008
0.994342
1.00023
0.995248
0.995082
0.991795
0.993005
0.998778
0.993814
0.99665
1.01914
1.01514
1.02589
0.99502
0.997274
1.00126
1.00185
1.00492
1.00396
0.983073
0.981172
1.00619
1.00279
0.983386
0.984004
0.99132
1.07059
0.989973
1.24889
1.10415
0.988553
0.994039
0.990803
0.992147
0.99116
0.992821
0.988945
0.986819
1.00203
1.00241
1.00104
0.998076
0.997784
0.999878
0.979425
0.986605
0.995651
0.998824
1.00079
0.998959
1.00042
0.995913
0.993557
0.984882
0.994053
0.999029
1.0055
1.00405
0.98835
0.987791
1.00407
1.00208
1.0048
0.99221
1.0012
1.00262
1.00069
1.00251
0.995553
0.996283
0.993811
0.993736
1.00394
1.00392
1.00353
1.00356
0.996284
0.99462
1.00406
1.00386
0.994734
0.994741
1.0343
0.99668
0.995862
1.13424
1.11
0.997245
0.997241
0.994954
0.994936
0.973094
0.972649
1.03951
0.977487
1.00706
0.997778
0.99487
1.00097
0.996021
0.995912
1.2107
1.23317
1.05396
1.26198
1.09576
1.09323
0.971429
1.07028
1.00508
1.00385
0.995217
1.00047
1.00049
1.00462
1.00426
0.994854
0.998763
1.00126
0.988394
1.13058
1.06345
1.16357
1.01632
1.01493
1.02133
1.00732
1.40583
1.1181
1.06461
1.09375
0.995821
1.00353
1.01857
0.997109
1.00267
0.999978
0.996782
0.991367
0.996399
0.990546
0.986815
0.986708
0.98705
0.988267
1.00528
1.00106
0.999829
0.995251
1.00249
1.0021
0.994304
0.990272
0.994891
0.994025
0.983108
0.979061
0.990177
0.992066
0.993915
0.997293
1.00042
1.00046
0.993416
0.986461
0.978631
0.980081
0.991606
0.996506
1.00384
1.0031
0.98982
0.988004
1.0019
1.00384
0.996658
0.995116
1.00423
1.00425
1.0008
1.00254
0.994942
0.994451
0.994448
1.00395
1.00394
1.00313
1.00318
1.00467
1.00464
0.996544
0.996515
0.990261
0.990369
1.00386
1.00386
0.995769
0.994723
1.00356
1.00357
1.0122
1.01475
1.00868
0.993496
0.995937
0.899883
1.12397
1.08352
1.16503
1.01141
1.01432
0.991879
0.991869
0.967354
0.967847
1.12385
1.10996
1.18935
1.12034
0.960815
1.04461
0.99391
0.996468
1.00581
0.996895
0.995805
0.992894
0.984183
0.996588
1.02083
0.978832
1.15383
1.26539
0.939316
1.17594
0.981213
0.996041
0.992928
0.99208
0.99028
0.992475
0.992463
1.0051
1.00372
1.00087
1.00138
1.00413
1.00441
1.00667
1.00154
0.993572
0.988761
1.19662
0.98778
0.982929
1.00517
1.09482
1.25345
1.12308
1.22425
1.01964
1.04401
0.998994
1.0007
1.00056
1.01798
0.988938
0.9947
0.98915
0.988809
0.990119
0.994046
0.991678
0.991317
0.986712
0.988097
0.988816
0.989119
1.00165
1.00117
1.00208
1.00248
0.991711
0.991311
1.00216
1.00247
0.998597
1.00123
0.991885
0.996379
0.98051
0.97886
1.12722
1.11741
0.98831
0.989924
0.988195
0.98867
0.992098
0.989375
0.997815
0.993837
0.999181
1.00076
0.997573
0.991677
0.982279
0.97864
0.988322
0.987863
0.989811
0.993978
1.00321
1.00469
0.996165
0.999352
0.991033
0.988635
0.989555
0.986086
1.0045
1.00271
1.00143
1.0022
0.991578
0.994403
0.993641
0.994435
1.00241
1.00244
0.997131
0.99794
0.993604
0.994028
1.0016
1.0003
1.00413
1.00408
1.00289
1.00092
1.00383
1.00381
0.994239
0.994227
0.991606
0.996217
1.00425
1.004
1.00406
1.00406
0.99555
0.995544
0.997497
0.997585
1.00224
1.00424
1.00194
0.999278
1.03084
1.04381
1.02837
1.08054
1.00014
0.996176
0.997671
0.994257
1.0096
0.993577
1.11305
1.07179
1.00371
1.00797
1.0006
0.999891
1.0049
1.00727
1.00032
0.999773
1.11389
1.11481
1.11502
1.10859
1.12961
1.12089
1.03084
0.992333
0.989703
0.991224
0.993652
0.993917
0.996597
0.995874
1.00597
0.997203
0.989703
0.989211
0.989145
0.993391
1.18927
1.19466
1.01137
1.00666
0.994642
0.979786
0.982558
0.998101
1.21446
0.995317
0.991271
1.03572
1.039
0.99454
0.99135
0.990534
0.990841
1.00516
1.0036
0.996261
0.996848
1.0048
1.0041
0.988924
0.985775
1.01052
1.01343
1.02236
1.09361
0.984935
1.27519
0.980273
0.990887
1.0098
0.892017
1.09344
1.01087
1.00486
0.989393
0.999085
1.27933
1.23701
0.993399
0.99342
0.99663
1.0151
1.00011
1.00262
0.995881
0.987713
0.994544
0.985936
0.99764
0.989708
0.987593
0.990839
0.991515
1.0011
1.0014
1.00049
0.999129
0.996194
1.00029
0.993456
1.00203
0.999316
1.00144
1.00215
1.00251
0.997664
0.996198
0.996489
0.992803
0.979726
0.982053
1.03106
1.06388
0.983537
0.991698
0.99176
0.988681
0.988864
0.990689
0.988418
0.988264
0.988738
0.990745
0.999603
0.996036
1.00008
0.996124
0.988195
0.981716
0.989365
0.987642
1.00373
1.00388
0.994629
0.992709
0.994433
0.993464
0.986994
0.988373
1.00472
0.99929
1.00234
1.00461
0.999393
0.993983
0.990819
1.0028
1.00198
1.00249
1.00422
0.999009
0.997931
1.00119
1.00066
0.988898
0.988503
1.04766
1.05482
1.06369
1.06327
0.997067
0.99913
1.00283
1.0029
1.00365
1.00362
1.0048
1.0048
0.996957
0.996953
0.995697
0.999206
1.00471
1.00439
0.988643
0.988648
0.993742
0.993817
1.00101
1.00104
1.00385
1.00385
0.99659
0.996646
0.994509
0.994497
0.995581
0.995621
1.03737
1.03745
0.995319
0.995489
1.00433
1.00229
1.02847
1.02578
1.01689
1.01028
1.02603
0.993631
0.972334
1.04632
1.00831
1.00848
1.04117
1.08508
1.00067
0.99637
0.996722
0.994695
0.996319
0.997883
1.01871
1.00673
1.00047
1.01944
1.00372
1.00376
0.994658
0.994647
1.00369
1.00799
1.01154
1.01446
0.988796
0.986678
0.996593
0.996548
0.992053
0.991941
0.994509
0.994129
0.999275
0.9988
0.970265
0.969695
1.05488
1.01275
1.03618
1.00642
0.99867
1.00981
1.01452
1.03978
0.940536
1.00684
1.00735
0.998178
0.991602
0.993884
0.995549
0.996953
0.993209
0.996736
1.00514
0.988856
0.992789
0.996091
0.995192
0.994142
1.07284
0.998611
0.995572
0.978388
0.992678
1.00883
1.10746
0.992081
0.995764
0.935468
1.10854
1.00055
0.998132
0.992584
0.993141
1.00503
1.00383
0.997405
0.997976
0.992341
0.993573
0.99676
0.993246
0.980546
0.981658
1.04261
0.99799
1.00329
1.19455
1.31781
1.08421
0.993057
0.998691
0.982414
0.983455
1.0656
1.14253
0.968601
0.959838
1.03321
1.01744
1.01009
1.01346
0.988767
0.993241
1.00024
1.03267
0.993177
0.990452
1.00515
1.00283
0.991092
0.988276
0.987984
1.00528
1.00532
1.0021
1.00195
0.991297
0.992385
1.00219
1.00246
0.99079
0.995105
0.981376
0.984009
0.978063
0.978895
1.04745
1.01468
0.982975
0.978788
1.00122
0.987936
0.989136
0.992656
0.990829
0.993772
0.99041
0.998375
1.00086
0.990665
0.997673
1.00306
1.00465
0.995946
0.993911
1.00029
0.996959
0.997159
0.994776
0.992804
0.994278
1.00451
1.00073
1.0006
1.00239
1.00504
1.00244
1.00222
1.00153
0.995707
0.993772
0.998945
1.00256
1.00423
1.00296
1.00299
1.00246
1.00266
1.00232
0.986349
1.04775
1.0548
0.9965
0.994238
0.999166
0.993904
0.993957
0.994032
1.00345
1.0034
1.00387
1.00386
1.0043
1.00424
1.0038
1.0035
0.99638
0.994983
0.995899
0.999298
1.00467
1.00433
0.989393
0.98934
0.99636
0.999487
0.993474
0.993371
0.992227
0.992312
0.997098
0.997175
1.00292
1.00288
1.00428
1.00428
1.00405
1.00405
0.993963
0.991902
0.994712
0.995739
0.988596
0.988562
1.02469
1.02484
0.99636
0.996368
0.991803
0.991799
1.00002
0.999998
1.00454
1.00386
0.994731
0.995023
1.0063
1.00282
0.98839
1.01571
1.02157
1.04917
1.05566
1.03225
0.992587
1.01021
1.01046
0.993953
0.992484
0.996675
0.995616
0.993913
0.993679
0.996663
0.992225
1.10205
1.15693
1.03918
1.14645
0.988852
0.988411
1.00157
1.00379
0.995653
0.995808
1.01133
1.0142
1.00801
1.00369
1.01139
1.0143
0.993404
0.99464
0.994541
0.993656
0.994832
0.995134
0.996999
0.996978
0.992542
0.993455
0.996491
0.996743
0.991842
0.991926
1.00357
1.00404
0.984093
0.985805
1.1174
1.11674
0.969055
0.969804
1.03303
1.14945
0.988184
0.988858
1.00338
1.00077
0.993311
0.99702
0.998486
0.99755
1.00541
0.996735
1.00073
0.996555
0.986147
0.995822
1.06734
1.01501
1.06102
1.01683
0.968953
1.01342
1.0054
0.987904
0.999247
1.29406
1.04707
0.988902
1.0358
0.937371
1.11447
1.04259
1.00096
1.00063
0.995203
0.989636
0.995875
0.996478
0.999033
1.00223
1.00033
0.999715
0.999428
0.998493
1.02664
0.993706
0.995217
1.00903
0.98435
1.00787
0.990703
0.972856
1.02261
0.945558
0.995066
1.00717
1.00936
1.00393
1.00301
0.985149
0.989831
1.00855
1.06737
0.997429
0.981876
1.10463
0.999006
1.00232
0.99295
0.988227
1.00527
1.00067
1.00217
1.00531
1.00248
1.00128
0.994088
0.995848
0.988403
0.988348
0.997558
1.00087
1.002
1.00231
1.00132
0.998942
0.989954
0.993426
0.979113
0.980052
0.978385
0.979332
1.10607
1.1762
0.977565
0.980056
1.00621
1.03011
0.988148
0.990128
0.98952
0.991415
0.999201
1.00107
1.00476
1.00378
1.00209
0.999395
0.995435
0.998306
0.992018
0.989545
1.00251
1.0044
1.00431
1.00176
1.00235
1.00088
1.00239
1.0049
1.00169
1.00236
0.992434
0.992694
1.0026
1.00107
1.00265
1.00427
0.999903
1.00282
0.986461
1.00257
0.995818
0.994361
0.99412
0.994007
0.993794
0.994022
0.988628
0.989277
0.998712
1.00118
1.00335
1.00277
1.00296
1.00301
1.00358
1.00307
1.00452
1.00457
1.00414
1.00412
0.995828
0.995897
0.995039
0.996426
0.993018
0.992926
1.00387
1.00366
1.0039
1.0037
1.00483
0.999404
0.999451
0.999474
0.999472
0.992135
0.995051
0.994976
0.990526
0.990598
0.993888
0.995423
1.00398
1.0038
1.00382
1.00383
0.996513
0.996573
1.00304
1.00304
1.00437
1.00436
0.998627
0.998691
0.992726
0.994479
1.00375
1.00376
0.996043
0.995787
0.988548
0.995555
1.02483
1.0248
1.01771
1.01771
0.9932
0.993198
0.992119
0.99215
0.994776
0.995163
1.00199
0.999226
1.00379
1.00454
0.999243
1.0019
0.995594
0.994812
1.02903
1.03932
0.990909
0.980276
1.04087
1.01615
0.965673
0.989869
1.07518
1.01529
1.0324
0.978844
1.05252
0.995819
1.00279
0.986967
0.986089
1.01125
1.027
0.987468
0.994988
0.996128
0.998193
1.0002
1.27316
1.02466
1.05883
1.02516
1.07015
1.28999
1.1998
0.986129
0.980751
1.00151
1.00144
0.998237
0.992421
0.986331
0.986111
1.00307
1.00361
0.992704
0.993666
1.00801
1.00369
0.993326
0.994777
0.993636
0.994532
0.999279
0.998816
0.994985
0.995137
0.997012
0.997049
1.07959
1.07978
1.06781
1.08355
1.00502
0.995589
0.992071
0.99228
0.996245
0.995877
0.993864
0.994491
0.996715
0.998198
1.1159
1.11667
0.975062
0.976859
0.987879
0.988319
1.02078
1.0056
0.997118
0.997094
0.996128
0.997875
0.993404
0.996568
1.00564
0.996768
1.0123
0.996361
0.993045
0.995459
0.964369
0.978307
0.98381
1.00047
1.00507
1.01926
1.00443
1.0058
1.01021
0.974622
0.982961
1.04388
1.04279
0.996483
1.00414
0.999989
1.00293
1.00182
0.998511
0.996894
0.999009
0.99865
0.992435
0.99558
0.997797
1.00867
1.03625
0.988789
1.01231
1.0054
1.02456
1.02114
1.01384
0.988816
1.01204
1.06078
1.16532
1.18821
1.04735
1.08197
1.00201
0.999232
0.99667
0.984946
0.991347
0.988572
0.967751
0.991013
1.02625
1.00051
1.20401
0.986314
1.00377
0.994465
0.999686
1.00258
1.00527
1.00611
1.00067
1.00149
1.00532
1.00204
0.997196
1.00165
1.00529
0.991422
1.00259
0.989993
0.991884
0.99052
0.992359
1.00058
0.996873
0.994967
0.997703
0.986966
0.982742
0.982634
0.986188
1.0053
0.986065
1.10166
1.0609
1.14479
1.17198
1.00994
1.08834
1.05708
0.99411
0.988056
0.98903
1.00357
1.00475
0.998692
1.00194
0.99528
0.993336
0.994299
0.996084
0.992755
0.990433
1.0023
1.00426
1.00236
1.00449
1.0024
1.00477
0.992646
0.993485
1.00257
1.00093
1.00315
1.00258
0.99543
0.996635
0.99697
0.996467
1.03058
1.0335
1.04973
1.04636
1.01336
1.00994
0.993384
0.991639
0.995576
0.995521
0.996806
0.995502
1.0023
1.00246
1.0038
1.00378
1.00425
1.00421
1.00355
1.0035
1.00385
1.00348
1.0036
1.00447
1.00323
1.00328
1.00344
1.00347
1.05008
1.05014
0.995895
0.995914
0.996535
0.996019
1.05023
1.05222
0.988795
0.98886
0.9932
0.993292
0.999535
0.997522
1.00389
1.00369
1.00392
1.00374
0.989416
0.989516
0.996148
0.991519
0.988646
0.989232
0.99204
0.991921
0.995348
0.995274
1.00393
1.00376
1.00402
1.00431
0.998678
0.998622
1.00427
1.00302
1.00384
1.00385
1.00438
1.00437
0.996834
0.996834
0.989937
0.989847
0.994301
0.992473
0.990874
1.00065
1.00064
0.995522
0.995515
0.993233
0.993237
0.999313
1.0006
1.02406
1.0236
1.02465
1.02441
1.03754
1.0376
0.997609
1.01786
0.994573
0.994575
0.994515
0.99468
1.00134
1.00135
1.0015
0.998696
1.00394
1.00453
0.995018
0.99501
0.99911
1.00176
1.00383
1.00454
1.00443
1.00307
0.995103
0.995815
1.03046
1.02762
1.02978
1.0368
1.02935
1.01909
0.994059
1.00586
1.00506
1.03814
1.00725
1.06527
1.02503
1.00043
0.995903
0.995482
0.983247
0.985801
0.987382
0.980222
0.991206
0.987739
1.00167
1.00597
0.995472
0.99357
0.994193
0.994441
0.999872
1.00734
1.00163
1.04921
1.02119
1.03838
1.16657
1.02644
1.00456
1.00785
1.12284
1.04169
0.983782
0.982091
0.996149
0.995638
1.002
1.00383
0.993632
0.99358
0.984723
0.984558
1.00361
1.00361
1.0127
1.03321
0.993631
0.992687
1.01138
1.01428
1.01147
1.0144
0.992577
0.993347
0.9932
0.993065
0.9945
0.993577
1.00209
1.00208
0.995352
0.994519
0.995194
0.995249
0.996194
0.996123
0.999058
0.999072
1.08185
1.07794
1.0792
0.995594
1.00491
0.9965
0.996461
0.996507
0.995924
0.993807
0.993502
1.00726
1.00731
1.10932
1.11055
1.0041
1.00543
0.971978
0.97288
1.03403
1.03441
1.21071
1.22781
0.990029
0.991616
1.01276
1.01243
0.993498
0.996085
1.00168
1.00276
0.993795
0.996113
1.00627
0.997657
0.993111
0.992761
1.18875
1.18199
0.97728
1.01458
0.992255
0.995553
1.0026
0.999531
1.00245
0.991961
0.990932
1.01066
0.997998
1.01402
1.15911
1.19022
0.994966
0.982653
0.984999
1.0162
1.13244
1.09658
1.21277
1.18321
1.17432
1.00269
0.998923
0.982793
0.980795
0.980502
0.981698
0.995279
1.01166
1.00727
1.11759
1.00449
0.98321
0.985766
0.993258
0.996869
1.00691
1.00019
1.00539
0.999618
0.99464
1.00179
1.00531
0.998051
1.00199
0.993288
1.00174
1.0024
1.00516
0.989812
0.989493
0.98996
0.994545
1.00065
1.00058
0.999464
0.996241
0.991748
0.978651
0.979619
0.993271
1.00599
1.18551
1.17817
1.03955
0.979777
0.980274
1.00563
1.00253
1.00415
1.00336
1.00474
0.996622
0.994452
0.993868
0.995092
1.00237
1.00441
0.999459
1.00055
1
1.00001
1.00246
1.00206
0.996041
0.99607
0.999107
0.999102
0.994159
0.994119
1.06185
1.03869
1.02021
1.02397
0.998159
0.997282
1.04322
0.992351
0.992908
0.99183
0.993569
0.990119
0.990038
0.994493
0.994278
0.992514
0.992567
1.00097
0.998492
1.00423
1.00467
1.00328
1.00322
1.00376
1.00395
1.00417
1.00383
1.00382
1.00157
1.00171
1.00469
1.0048
1.00454
1.00452
1.00379
1.00377
0.992562
0.992574
0.996492
0.99647
0.996137
0.996132
0.996942
0.995222
0.996546
0.991786
0.991946
0.995998
0.994393
0.991361
0.989804
1.00386
1.00364
1.00358
1.00454
1.00408
1.00407
1.00391
1.00373
1.00413
0.999093
0.999177
0.996405
0.996634
0.989189
0.989147
0.989928
0.990101
0.992135
0.990449
1.00427
1.00432
1.00396
1.00379
1.00423
1.00083
1.00077
0.998782
0.998829
1.00098
1.00404
1.00403
1.00484
1.00485
1.00437
0.99427
0.995341
0.993355
0.993227
0.98921
0.988708
0.990604
0.990758
0.998039
0.998053
1.0107
1.03753
0.993481
0.993805
0.993832
0.99448
0.994573
0.995662
0.995582
0.98854
0.98854
1.02324
0.995584
1.03794
1.03816
1.01797
1.01809
1.03749
1.02478
0.993252
0.993216
0.994127
0.994126
0.996284
0.996288
1.00168
1.00168
0.995186
0.995181
1.00355
1.00381
0.999801
1.00174
0.998118
0.997951
0.999297
1.00206
0.996825
0.995259
1.00329
1.00336
1.00375
1.00454
0.994739
0.995023
1.00051
0.99763
1.00103
1.00025
1.01773
0.997914
1.00728
0.995707
0.995926
1.01273
1.01361
1.00104
1.00159
1.00423
1.00868
1.0307
1.12646
1.00401
1.08164
0.955683
0.90791
1.00824
1.00842
1.00143
0.993782
0.98238
0.983138
1.00803
1.00518
0.980044
0.980644
0.998001
0.983244
1.01237
1.10818
0.999039
1.00085
0.995082
0.994438
1.009
1.00147
0.996931
1.01423
1.0142
0.990475
1.02169
1.02492
1.05237
0.999066
1.03133
1.01039
0.996126
1.00272
0.998258
0.990793
0.988847
1.00363
1.00368
0.996833
0.999573
0.985812
0.980422
0.995372
0.997246
1.0169
1.01688
0.990271
0.990216
0.98551
0.985382
0.990979
0.990905
1.00306
1.00306
0.999713
1.0039
0.993601
0.992672
0.995543
0.994929
1.01136
1.01426
0.999435
0.996785
1.01152
1.01444
1.01224
1.01513
0.993467
0.993312
1.03488
1.0343
0.988749
0.986888
0.988746
0.986802
0.98736
0.987508
1.00331
1.00341
0.996935
0.996212
0.995036
0.995016
0.995506
0.995567
0.997244
0.997229
0.992048
0.99174
0.996283
1.00012
1.0073
1.00514
1.00254
1.00244
1.00419
1.00586
0.992438
0.992295
0.996625
0.997069
1.00384
1.00421
1.11177
1.11279
0.984912
0.981193
1.00413
1.00498
0.970333
0.971082
1.03405
1.03371
0.991988
0.99175
0.989466
0.987826
0.998293
1.00524
0.99952
0.994678
0.997865
0.999386
1.11176
0.994621
0.994126
1.00611
0.998207
1.00627
0.997892
1.00573
0.995445
0.98797
0.996597
1.01146
1.18029
1.01006
1.03826
1.22146
1.28702
1.00187
1.02952
1.17579
0.987903
0.991681
0.984568
0.995041
0.974272
0.970857
1.02111
0.981139
1.12462
1.02646
1.00109
0.991304
0.990647
0.996514
1.00495
1.00032
1.00532
0.994939
1.00143
0.999405
1.00195
1.00105
1.0052
1.0024
0.996835
0.991403
0.987186
0.999822
1.00069
0.988509
0.985135
0.980549
0.984515
1.16166
1.08323
0.98478
1.00403
1.00308
1.00288
1.00457
0.997792
1.0011
1.00233
1.00108
0.999953
0.999507
1.00364
1.00528
1.00369
1.00316
0.995139
0.995568
1.00387
1.00646
0.996398
0.996408
0.996646
0.996665
0.996533
0.996565
0.995927
0.996078
0.994694
0.994609
1.03468
1.03209
1.06386
1.0274
1.04023
1.0374
0.982404
0.983247
0.991925
0.993659
0.991735
0.993476
0.995693
0.995442
0.989628
0.989659
0.990931
0.990973
0.996799
0.996959
1.00473
1.0047
1.00286
1.00409
1.0039
1.00397
1.00264
1.00271
1.00397
1.00399
1.00336
1.00144
1.00403
1.00401
1.00418
1.0042
1.00395
1.00393
1.02168
1.02253
0.996097
0.996107
0.996946
0.996937
0.996526
0.996006
0.996586
0.996073
0.996507
0.995158
0.98466
0.984271
0.994369
0.998312
0.994469
0.99609
0.989958
0.991546
1.00395
1.00469
0.999438
0.99743
1.00447
1.00343
1.00437
1.0047
1.00406
1.00388
1.00443
1.00474
1.00391
1.00372
0.99137
0.991491
0.997169
0.9973
0.991913
0.992201
0.999432
0.996245
0.995201
0.995126
0.991779
0.991627
0.996817
0.996881
1.00307
1.00314
1.00395
1.00377
1.00423
1.00422
0.996692
0.996753
1.00486
1.00486
1.00435
1.00433
1.00485
1.0047
0.996596
0.99661
0.99336
0.993166
0.990026
0.993458
0.988982
0.988741
0.992614
0.994395
1.00299
1.00298
1.00264
1.00262
1.00426
1.00463
0.996774
0.996772
0.994692
0.995698
0.994232
0.994364
1.03937
1.03944
0.988548
0.988558
0.995477
0.9954
0.995743
0.995957
0.995951
0.996127
0.997654
0.997714
0.994572
0.994575
0.995378
0.995371
0.996694
0.996845
0.995436
0.995585
0.996157
0.995792
0.998916
0.998919
0.994781
0.99479
1.00161
0.998773
1.00427
1.00224
1.00072
1.00049
0.999343
1.00208
0.995218
0.9952
0.996813
0.996821
0.994739
0.995006
1.00184
0.999183
0.996216
0.995076
0.997662
1.00048
0.995664
0.995653
1.00135
0.994077
0.998278
0.993325
0.998518
0.995965
0.995226
1.05104
1.04323
0.993204
0.993984
1.05743
1.07471
0.994264
0.977731
1.00864
1.01486
1.03626
1.05138
1.05085
1.01959
1.03107
1.00531
1.04397
1.08418
0.994375
0.994957
0.985401
0.988393
0.995152
0.985487
0.984993
0.986449
1.01592
1.01627
1.0049
1.01862
0.987978
0.980932
0.993043
0.998685
0.978858
1.04345
0.984398
0.999324
1.00218
1.11086
0.998915
0.997525
0.992135
0.997158
0.996099
0.99431
0.994233
0.99982
0.991784
0.995217
1.00182
1.00444
1.06972
1.09522
1.09389
1.05174
1.21524
1.16142
1.29292
1.00056
1.00227
0.995023
0.996458
0.987999
0.987505
0.989786
0.985335
1.00269
1.00271
1.00169
1.00386
1.0289
1.03299
0.989679
0.985975
0.995341
0.995318
1.00251
1.0025
0.998042
0.998142
0.993861
0.993919
0.994704
0.994775
0.986298
0.984658
0.990826
0.990746
1.00173
1.00174
0.985018
0.989992
0.995258
0.994115
0.999587
1.00377
0.987259
0.987091
0.994355
0.994267
1.00798
1.0037
1.01134
1.01422
0.995514
0.994825
0.996789
0.999438
1.01149
1.01442
1.01178
1.01469
0.993425
0.994858
1.00107
1.00171
0.996309
0.998386
0.988768
0.986894
0.988742
0.986866
0.99181
0.995993
0.995978
1.00261
1.00271
0.994849
0.994955
0.996364
0.99599
0.996349
0.996339
1.00429
1.00431
0.993627
0.993624
0.992226
0.992765
0.992391
0.993005
0.99217
0.993708
1.00719
1.00454
1.05499
1.09234
0.979238
0.969798
0.999719
0.99973
1.00688
1.00731
0.992029
0.992116
1.00226
1.00302
0.995392
0.99492
1.00621
1.00592
0.9684
0.968592
0.968647
0.968471
1.0327
1.03211
1.00007
0.997823
0.992989
0.995008
0.970861
0.97167
1.14858
1.17614
1.18213
0.990538
0.984669
0.996035
0.996373
0.996658
0.996611
1.00563
1.00589
0.999862
1.00361
0.993369
0.991007
0.992035
0.991559
1.0138
1.18591
1.21182
1.14137
1.12145
1.13097
1.16946
1.00103
0.993798
1.01805
1.01813
1.02997
1.00683
1.00164
0.99501
0.987928
0.99132
0.99164
0.990756
0.996279
1.00202
1.00027
1.00545
1.00196
0.998751
0.9884
0.983429
1.00026
0.998869
0.99944
1.03209
1.00389
1.00343
1.0007
1.00054
0.993662
0.993184
1.00477
1.00477
0.992825
0.992876
1.00308
1.00251
0.994756
0.99501
1.05042
1.05138
0.99529
0.995945
0.995847
0.995832
0.996414
1.00348
1.00425
0.995503
0.996656
0.994347
0.99432
0.995196
0.995178
0.995499
0.994182
0.996833
0.995897
0.994242
0.994732
0.995218
0.994486
1.06375
1.06329
0.995413
0.99464
0.99792
0.997825
0.99202
0.99375
0.990199
0.990219
0.990359
0.991947
0.992106
0.988772
0.988797
0.99091
0.990876
1.00045
0.997684
0.995357
0.995529
1.00422
1.00412
1.0049
1.00491
1.00404
1.004
1.00373
1.00369
1.00266
1.00066
1.00117
1.00131
1.00479
1.0048
1.0044
1.00437
1.00389
1.00388
1.00336
1.0034
1.00446
1.00443
1.00396
1.01862
1.01821
1.00504
1.0045
0.992593
0.992614
0.996812
0.995983
0.99639
0.996524
0.995994
0.996566
0.996054
0.99493
0.994268
0.992021
0.998992
0.993018
0.995183
0.995944
1.00004
0.990962
0.991123
0.988821
0.98884
0.99127
0.98973
0.991454
0.989881
1.00384
1.0036
0.999345
0.997343
1.0045
1.0035
1.00435
1.00468
1.00367
1.00482
1.00482
1.00411
1.0041
0.992884
0.992812
0.992811
0.992962
0.988716
0.988705
0.989055
0.98896
0.996353
0.999467
0.989532
0.989539
0.993573
0.993664
0.99695
0.99702
1.00422
1.00301
1.00476
1.00475
1.0048
1.00426
1.00425
0.996389
0.99645
0.998732
0.996632
1.00486
1.00485
1.00471
1.00471
0.995217
0.994241
0.989985
0.989756
0.998768
0.998847
0.988778
0.988795
0.988845
0.990417
0.988701
0.989284
1.00391
1.00391
1.00071
1.00071
1.00455
1.00455
0.993668
0.995725
1.00389
1.00388
0.992916
0.992114
0.994339
0.996213
0.996203
0.996554
0.996568
0.994677
0.995653
0.99326
0.993311
0.988599
0.988797
0.995402
0.995381
1.02304
1.02299
0.988892
0.988852
0.995909
0.988935
0.996295
0.99629
0.995377
0.995391
0.99412
0.993205
0.994068
0.994222
0.996289
0.996452
0.996209
0.99636
0.996407
0.993005
1.00385
1.00385
0.994846
0.99527
1.00378
1.00364
1.00182
0.999813
1.00001
0.995084
0.995071
0.99935
1.00207
0.995034
0.995024
0.995262
0.995261
0.993542
0.993468
0.996532
0.995162
0.997738
1.00075
1.00303
1.00442
1.00244
0.999448
1.00008
1.0009
1.0025
0.996638
0.997948
0.993139
1.0561
1.05464
0.987331
0.995077
0.998362
1.03778
1.06317
0.994045
0.990752
0.987455
1.00139
1.00863
0.980123
1.01411
0.999753
0.89071
1.04239
1.02465
1.0455
1.05536
0.968503
0.994828
0.994511
1.01274
1.01511
0.994053
0.995008
1.00429
1.00711
0.997464
0.996644
0.989532
0.990752
0.983618
0.983377
1.00274
1.00391
1.00863
1.00873
1.01569
1.00478
1.0183
1.012
1.00551
0.988144
0.988433
0.989641
0.99901
0.995617
1.00969
1.00236
1.00896
0.998335
0.984287
0.975425
0.979997
1.17595
1.05935
0.995952
0.995379
0.989906
0.999884
0.998758
0.997309
0.996125
1.00116
1.02701
0.994008
0.994861
1.00469
1.02265
1.06222
1.09864
1.11682
1.12524
1.27776
0.980207
0.970931
0.980365
0.986149
1.03241
1.03527
0.980802
0.991734
0.985914
1.00248
1.00138
0.994008
0.989661
1.00267
1.00307
1.00306
1.05949
1.05843
0.986429
0.990283
0.990996
0.99108
0.988461
0.994235
1.0025
1.002
1.0038
1.0038
0.992321
0.992227
0.996069
0.996057
0.994432
0.994535
0.987839
0.987734
1.00564
1.00569
0.996455
0.996541
0.994554
0.994561
1.00171
1.0017
1.00254
1.00253
0.990749
1.01212
1.0327
0.993927
0.995151
1.00803
1.01132
1.01418
1.03859
1.03388
0.994438
1.00798
1.00369
0.999431
0.996777
1.00809
1.00375
0.993337
0.992571
1.01206
1.01494
0.996831
0.999812
0.992547
0.992519
1.03589
1.02158
1.00331
1.00449
0.998596
0.996511
0.991919
0.991959
0.991853
0.991894
0.994277
0.994324
1.00222
1.00221
0.994981
0.995078
0.998244
0.997661
0.994664
0.996781
0.996012
0.996401
0.996189
0.996194
0.99631
0.996302
1.00377
1.00375
0.995138
0.995131
0.992175
0.992678
0.992341
0.992911
0.994133
0.992397
1.00035
0.996478
1.00471
0.991323
1.06161
1.08814
1.04477
1.09929
1.03758
1.1043
1.00258
1.00186
0.996474
0.996544
0.99512
0.99522
0.992513
0.992247
0.991817
0.991799
1.00558
1.00608
0.997558
0.998107
1.00719
1.007
1.00285
1.00339
0.978365
0.978812
0.973819
0.974708
1.03147
1.03132
0.999771
1.00239
1.00625
1.00687
0.982255
0.980299
0.961305
1.23822
1.18331
1.20294
0.990874
0.992584
0.994767
0.995078
0.997466
0.996493
0.995376
0.99599
0.985894
0.995101
0.997994
1.0006
0.999487
1.00626
1.00926
1.00465
0.998923
0.990035
0.997459
1.0209
1.26798
1.16624
1.23482
1.06856
1.09403
1.22607
0.968908
1.00639
0.988504
0.988989
1.00006
1.00263
0.991695
1.00194
0.995509
0.983197
0.980314
0.999461
0.998513
0.991964
0.991406
1.00328
1.00327
0.99263
0.992696
1.00323
1.00373
0.995157
0.995588
1.00426
1.00421
1.04588
1.05203
1.00033
1.00143
0.985997
1.04827
1.05444
0.996185
0.996178
1.00001
1.00008
0.998018
0.997968
0.995578
0.99667
0.994378
0.997005
0.997006
0.996713
0.99675
0.995513
0.994276
0.994427
0.996043
0.996825
1.0273
1.02508
1.04097
1.06089
1.02964
1.00714
0.993688
0.99615
0.997941
0.998349
0.997314
0.999385
0.990281
0.990363
0.990084
0.989596
0.98971
0.988662
0.988648
0.989604
0.988753
0.993833
0.994143
0.992484
0.990902
0.996264
0.995867
0.994711
1.00479
1.0048
1.00512
1.00495
1.00382
1.00452
1.00466
1.00391
1.00391
1.00477
1.00477
1.00325
1.00313
1.00471
1.00473
1.00431
1.00428
1.0039
1.00376
1.00374
1.00416
1.00449
0.995988
0.995962
0.994473
0.994117
1.03997
1.03931
0.996086
0.996073
0.996605
0.99663
0.994477
0.994442
0.996545
0.995987
0.996937
0.996928
0.996692
0.996182
0.994313
0.995005
0.994275
0.994296
0.993717
1.02691
0.992552
0.995464
1.05733
1.04658
1.0063
0.983217
0.994173
0.995735
0.988889
0.988785
0.994597
0.998499
0.997906
0.993919
0.994545
0.996186
0.991181
0.98966
1.00231
1.00243
1.00383
1.00358
1.00436
1.00321
0.997817
0.999843
1.00178
1.00188
1.00484
1.00484
1.00473
1.00441
0.994773
0.994716
0.991032
0.990961
0.99741
0.99901
0.999259
0.999336
0.989493
0.988656
0.988853
0.989012
0.99641
0.999488
0.992218
0.989502
1.00296
1.00301
0.999015
0.998958
1.00124
1.00133
1.00478
1.0048
1.00419
1.00417
1.00477
1.00479
1.00296
1.00299
0.998564
0.998508
1.00469
1.00469
0.995753
0.995753
0.992225
0.993941
0.996061
0.997719
0.997724
0.99893
0.997508
0.992015
0.994049
0.989992
0.989137
0.988725
0.993751
0.99378
0.991747
0.991762
1.00071
1.00392
1.00391
1.00422
1.00391
0.988197
0.9882
1.00391
1.00391
1.0039
1.0039
0.999994
1.00002
1.0045
1.00415
0.996227
0.996323
0.995487
0.995479
0.996768
0.996763
0.994512
0.994511
0.995412
0.995711
1.02428
1.02425
1.03767
1.03778
0.988802
0.988742
0.995911
0.995957
0.996
0.995518
0.995522
0.99677
0.996768
0.994119
0.994115
0.993121
0.993281
0.996354
0.996364
0.995518
0.995514
1.04338
1.04445
1.00182
0.996157
0.995797
0.999657
0.999662
0.995203
0.995195
1.00079
1.00073
1.00367
1.00382
0.999805
1.00182
1.00453
1.00451
0.995116
0.995102
1.00202
0.999334
1.00399
1.00453
0.996774
0.996722
0.99474
0.994743
0.993607
0.993581
1.00342
0.998132
1.00227
0.999301
0.995112
0.996417
1.0011
0.998364
0.99769
1.00047
0.994952
0.994932
0.994931
0.994923
1.00029
1.00018
1.00124
0.998275
1.00263
0.999551
0.996648
1.0025
0.993738
0.99497
1.00098
0.996432
0.996346
0.998396
0.994949
0.994587
0.993012
0.992643
1.04416
1.04628
0.992172
0.991069
0.991995
0.99369
1.00514
1.01047
1.01549
0.988962
0.98884
1.01419
0.996021
0.996314
0.996162
1.01294
1.01541
0.996704
0.996395
0.987099
0.984875
1.01108
1.01666
0.987964
0.98757
0.984479
0.995507
0.982944
0.983904
1.00819
1.00801
1.00474
1.00494
1.00879
1.00466
0.981184
0.986866
1.00472
1.01781
1.00961
1.00767
1.00448
0.980376
0.987068
0.996069
0.996155
0.987828
0.981651
1.00488
0.986211
0.998164
0.986731
1.00168
0.99981
1.0367
1.07473
1.06339
1.03219
0.994251
0.994672
0.996703
0.996901