/*--------------------------------*- C++ -*----------------------------------*\
  =========                 |
  \\      /  F ield         | OpenFOAM: The Open Source CFD Toolbox
   \\    /   O peration     | Website:  https://openfoam.org
    \\  /    A nd           | Version:  7
     \\/     M anipulation  |
\*---------------------------------------------------------------------------*/
FoamFile
{
    version     2.0;
    format      ascii;
    class       volScalarField;
    location    "2100";
    object      T;
}
// * * * * * * * * * * * * * * * * * * * * * * * * * * * * * * * * * * * * * //

dimensions      [0 0 0 1 0 0 0];

internalField   nonuniform List<scalar> 
238806
(
0.00223935
0.00207557
0.0065105
0.00962752
0.00831869
2.58285e-05
-0.000139539
0.0015116
0.00164439
0.00419835
0.0039405
0.00815594
-1.22011e-05
0.000126708
0.0123804
0.011588
0.00482056
0.00444256
0.000972078
0.000311188
0.00112368
0.00139061
0.00933186
0.00718065
0.00957105
0.00593985
0.00568736
0.00667056
0.0076852
0.010129
-1.40918e-05
-7.78283e-05
0.00350121
0.00318047
-0.000235179
-0.000235851
0.0540516
0.0552502
0.00383281
0.00352773
0.00364451
0.00955526
-9.54235e-05
-9.7878e-05
0.000401597
0.00104372
0.00526746
0.00479057
0.00285833
0.00250344
0.000222061
-4.04485e-06
1.06199e-05
0.000161556
0.00136201
0.00113392
0.00441124
0.00443714
0.0040553
0.00490328
0.00452113
0.00540323
0.00345114
0.00319125
0.00302142
2.32495e-05
0.000456918
0.00176876
0.00236469
0.00163124
0.0015027
0.00283564
0.00314586
0.00233996
0.00267781
0.000376061
0.00064481
-0.000199865
-0.000197838
0.00158162
0.00132358
0.00280502
0.00247801
0.00223706
0.00167616
0.00155451
0.00145913
0.0068279
0.00736596
0.00664879
0.00658817
0.00420089
0.00394746
0.00227503
0.00308136
-0.000192026
-0.000193101
0.00371633
0.00419914
0.0104308
0.00108609
0.000520055
0.00106846
0.00017772
-0.000110152
0.00171282
0.00193365
0.00207154
0.00236788
0.00300499
0.00331857
0.00148162
0.00116473
-3.03378e-05
0.000170302
-0.000116005
-0.000103175
0.100084
0.149862
0.131886
0.0116083
0.0145945
0.0017424
0.00222426
3.88283e-05
-0.000130412
0.00957423
0.0128731
0.00637716
0.00820649
0.00371961
0.00497137
0.00577598
0.0101046
0.00552237
0.0044283
0.00160811
0.00162305
0.00965604
0.0105775
0.00882089
0.0104124
0.00334116
0.00332889
0.00452393
0.000701477
0.00129838
0.000956295
0.000438194
0.000656127
0.00113055
0.000383099
0.000746271
0.00243863
0.0026882
0.0017445
0.00200372
0.00267546
0.00298054
0.00104632
0.00130644
0.000320671
0.000574798
4.40402e-05
0.000294985
-0.000151911
-0.000144312
0.000598677
0.000766931
0.0168276
0.0173277
0.00265851
0.00236523
-0.0150758
-0.00707996
0.0525054
0.00171521
0.00223759
0.000154222
0.000415706
0.01035
0.0141401
0.0116598
0.00579382
0.00567494
0.00528588
0.00484898
0.00707531
0.00229628
0.00230175
0.000221781
0.000218349
0.00367481
0.00514321
0.00453822
0.00471055
0.00404932
0.0094461
0.012281
0.00750513
0.00989188
0.00247346
0.00175461
0.00203153
0.00263492
0.00189274
0.00247823
0.00185467
0.00175715
0.00101934
0.000573451
0.00593997
0.00639882
0.00282161
0.00306891
0.00324188
0.0029587
0.00432657
0.00387245
0.00251464
0.00219886
0.00106241
0.00138368
0.000827931
0.000529607
0.000264205
3.29474e-05
-0.000215371
-0.000214143
-9.71507e-05
-0.000105938
0.00173588
0.00172819
0.000441673
0.00042466
0.00193815
0.0019732
0.0015019
0.00158608
0.00486682
0.00517581
0.0158884
0.0180547
0.00374415
0.00373565
0.00177363
0.00220758
0.00051483
0.000200843
0.000841211
0.000756325
0.00241682
0.00231826
0.00420463
0.00463176
0.00509941
0.00533176
0.0043065
0.00439099
0.00314781
0.00317465
0.00021706
0.000220611
-0.000177865
-0.000188691
0.00192731
0.00201737
0.00388737
0.00359135
0.00506362
0.00546345
0.00363541
0.00749654
0.00663947
0.00901031
0.00777517
0.00179219
0.00249466
0.000899975
0.00154526
0.00118195
0.000607623
0.00116029
0.00128558
-0.00020682
-0.000234945
-9.12995e-05
0.000150735
0.00360595
0.00345583
0.00499276
0.00541158
0.00271301
0.00295433
0.00321079
0.00348573
0.00327951
0.00359896
0.00365419
0.00405276
0.00252694
0.00282314
5.44104e-05
0.000195861
0.00159163
0.00189978
-7.12895e-05
9.36946e-05
0.000443425
0.000726712
-0.000184628
-0.000222673
-0.00015908
-0.000216756
0.000335405
0.000285965
0.00650944
0.00641572
-4.66003e-05
-5.7521e-05
-2.82657e-05
-1.85571e-05
0.00135251
0.00161294
0.00037097
0.000319352
0.00162569
0.00159193
0.123349
0.00254005
0.00227
0.011354
0.00946807
0.00622157
0.0063254
0.000579246
0.000630825
0.00930483
0.00969271
0.00369194
0.00444122
4.74191e-05
-0.000117537
0.000465211
0.000177459
0.00114428
0.00153556
0.0107713
0.00983584
0.00777122
0.0105497
0.00693517
0.00703034
0.00598784
0.00659267
0.000108879
8.17751e-05
0.000340938
-9.49626e-05
-9.64102e-05
-0.000173224
-0.000190935
0.00349086
0.00280461
0.00489784
0.00357189
0.00908506
0.00803836
0.0112421
0.00350565
0.00330238
0.00626025
0.00528462
0.0112433
0.00837422
0.00672904
0.00795842
0.00276739
0.00350725
0.00468577
0.00341057
6.9645e-05
0.00051234
0.00233729
0.003031
0.00218621
0.0028384
0.00192382
0.00201613
0.00218231
0.00230685
-0.000107139
0.000166418
4.80914e-06
0.00036491
-0.000233096
-0.000215574
0.000502056
0.000921298
0.00115702
0.00105059
0.00585809
0.00548322
0.00155924
0.00132539
0.00261392
0.00284961
0.00306988
0.00333278
0.00372518
0.00405736
0.00444526
0.00486199
0.00239077
0.00267526
0.000227881
7.57194e-05
0.0014877
0.00178422
0.00012824
-5.26173e-05
0.000211904
0.000276853
-0.000201561
-0.00020107
-0.00016589
-0.000218196
0.000390504
0.00337268
0.0033444
-5.41492e-05
-6.43182e-05
-0.000108224
-0.000101756
0.000154153
0.000139468
0.00212396
0.00213066
0.00278154
0.00273055
0.000284462
0.000301638
0.00709424
0.0086861
0.000419123
0.000399614
0.00529647
0.00475993
0.00487306
0.00343226
0.0032392
0.0140198
0.0145628
0.0109729
0.0134696
0.00133471
0.0011071
0.00219408
0.00215594
0.00706957
0.00700005
0.0721422
0.222806
0.0152808
0.0197975
0.00484716
0.00394843
0.000763019
0.00132847
-8.66144e-06
-0.00014911
0.000921997
0.00209528
0.00180054
0.00205515
0.00669999
0.00641569
0.00861624
0.0111888
0.0049872
0.00720653
0.00550075
0.00224987
0.00301778
0.00085387
0.00159318
0.000879509
0.000877426
-0.000180612
-0.000186358
-9.89182e-05
-0.000109446
-0.00016557
-0.000169886
0.00268124
0.00254027
0.00333027
0.00290665
0.00983125
0.00498907
0.00456248
0.00604797
0.0109671
0.0109598
0.00905365
0.0112571
0.00629287
0.00608027
0.00313101
0.00332938
0.00318818
0.00424231
0.00180835
0.00249047
0.00110966
0.00110761
0.00109365
0.00178628
0.00142043
0.000799885
0.00163853
0.00157039
0.00138617
0.00130271
0.000493776
0.0005446
-0.000212079
-0.000233727
0.000851181
0.001391
-0.000218934
-0.000233531
0.000115392
-0.000105043
0.000669
0.000334123
0.00491576
0.00510615
0.0124569
0.00982722
0.00180648
0.00156015
0.00201267
0.00178727
0.0024745
0.00224093
0.00281064
0.00255283
0.00294027
0.00319442
0.00353573
0.0038459
0.00417305
0.00455235
0.00211448
0.00184589
0.00226665
0.00253817
-2.50296e-05
-0.000129638
0.000787523
0.000543658
0.00138887
0.00167633
0.00216113
0.00181272
-0.000109535
2.01006e-05
-0.000130102
-0.000217232
0.000718599
0.000611937
0.000526694
0.000453234
-0.000234406
-0.000233507
0.000240859
0.000199678
0.0283814
0.0291144
0.00987991
0.00901154
7.31201e-06
-6.23608e-06
0.000618801
0.000789056
8.91243e-06
-1.92976e-06
0.00474311
0.00476223
0.00447425
0.00534419
0.000295694
0.000229904
0.000352917
0.000335308
0.0110501
0.0112502
0.0301843
0.0308552
0.000755637
0.000719015
0.00118153
0.00119149
0.0065689
0.00740512
0.00523319
0.00727414
0.00405755
0.00379311
0.00294353
0.00321367
0.00423061
0.00377091
0.0090455
0.00737266
0.00195241
0.00156027
0.0202883
0.0196506
0.00416551
0.00469797
0.00342732
0.00341014
0.124789
0.124815
0.0444565
0.107663
0.225844
0.229658
0.00348656
0.00416024
0.00285942
0.00290495
0.00056322
0.000464565
0.000305072
0.000325628
-4.38499e-07
-0.000150217
0.00188023
0.00197983
0.00218703
0.00207227
0.0113983
0.0156533
0.00328336
0.00305554
0.00411055
0.00470747
0.00534297
0.00615109
0.00842275
0.00222586
0.00292713
0.00420249
0.00410669
0.00080017
0.00158538
0.00163399
0.00163344
-0.000181465
-0.000185126
8.85583e-05
5.72697e-05
-0.000175843
-0.000189811
0.00171088
0.00182665
0.00279757
0.00287839
0.00670123
0.00790006
0.00631294
0.00996075
0.00389927
0.00366942
0.00567126
0.00590196
0.00545492
0.00305794
0.00283125
0.0048171
0.00552201
0.0125602
0.0090729
0.00264099
0.00249079
0.00341991
0.00468441
0.000492485
4.95979e-05
0.00249195
0.00324034
0.00127209
0.00097136
0.00125243
0.00167462
0.0020863
0.0022112
0.00234393
0.000148745
0.00012778
0.000596812
0.000649276
0.00029878
-2.70273e-05
0.00195601
0.0017927
6.20787e-05
-0.000123219
-0.000217865
-0.000233066
0.00138492
0.00126855
0.00372665
0.00388885
0.00482403
0.00460905
0.00802885
0.00942823
0.00530718
0.005848
0.00241262
0.00215357
0.00171809
0.00147656
0.0020991
0.00186786
0.0021556
0.00238202
0.00294332
0.00267759
0.00336502
0.00365568
0.00393693
0.00429082
0.00223527
0.00195459
0.000260022
9.64419e-05
0.00097484
0.00122784
0.000874222
0.00118675
0.00170007
0.00202475
0.000273749
0.000513151
-0.000236741
-0.000184686
0.000364995
0.000231165
0.000474854
3.11227e-06
2.98448e-05
-0.000232457
-0.000201357
0.000126477
0.000165005
3.5811e-05
6.29665e-05
0.00179527
0.00186148
0.0777843
0.0708309
0.0740835
0.0742228
0.0011569
0.000936496
-0.00013513
-0.000130467
-8.75435e-05
-9.55865e-05
0.000254006
0.000237487
0.00256309
0.00256457
0.00478398
0.00558081
0.000319838
0.000235311
0.00344343
0.00340357
0.00201467
0.0019789
0.00108572
0.00106687
0.000250988
0.00026763
0.00773124
0.00764044
0.0109739
0.0107324
0.0116742
0.0118969
0.137207
0.13999
0.00985601
0.0101179
0.000751543
0.000787443
0.141157
0.135952
0.11947
0.00453516
0.00526712
0.00356813
0.00322562
0.00389414
-2.59746e-05
-2.89182e-05
0.00454876
0.00483173
0.00427874
0.00397108
0.00247856
0.00229259
0.0030387
0.00279647
0.00619673
0.00659344
0.0061826
0.0060731
-0.000302501
-0.000299388
0.00484962
0.00494953
0.00204706
0.00164215
0.0015371
0.00130949
0.0100679
0.0118923
0.000614214
0.000626284
0.00228095
0.00223569
0.00286837
0.00284987
0.00339609
0.00338482
0.00962589
0.00955915
-0.00881049
0.0154691
0.00238683
0.0156816
0.0156605
0.00329449
0.00351277
0.00384973
0.00466338
4.63304e-05
5.99968e-06
-8.94892e-05
0.00135615
0.000771356
0.00033039
0.00116602
0.000671173
-0.000145137
-2.96527e-05
0.00207822
0.00165017
0.00250485
0.00263448
0.00622883
0.00793361
0.00280517
0.00264893
0.00538506
0.00460202
0.00596437
0.00773746
0.00294562
0.00221817
0.00488187
0.00692698
-0.000121243
-0.000136988
0.000874348
0.000862513
-0.000179438
-0.000187527
3.02882e-05
6.87274e-06
0.0030088
0.00243054
0.00239497
0.00223879
0.002096
0.00217776
0.00669177
0.00552523
0.00682582
0.011129
0.0139628
0.0116799
0.00356587
0.00336162
0.00432304
0.00408144
0.00764755
0.00941739
0.00394823
0.00417876
0.00697516
0.00568158
0.00659879
0.00658809
0.00177683
0.00239358
0.00340374
0.00472042
0.00166823
0.000998545
-0.000146742
2.5379e-05
0.00120688
0.00148236
0.0015869
-0.000108265
-0.000112308
-0.000239308
-0.00018898
0.00125702
0.000748937
-0.000219201
-0.000234389
0.000829508
0.000438203
0.00474909
0.00457523
0.00532992
0.00559971
0.00848311
0.00719989
0.00515819
0.00479386
0.00602555
0.00190143
0.00164941
0.00125825
0.00148832
0.0025764
0.00233498
0.00281292
0.00308646
0.00381093
0.00345788
-1.24087e-05
-0.000124528
0.000847259
0.00108613
0.000495788
0.000726442
0.000655426
0.000928235
0.0012841
0.000964254
0.000233549
0.000458665
-0.000136491
-0.000213215
-0.000157883
-0.000235281
-0.000218606
-0.00012816
0.000498901
0.000786759
4.99023e-05
-0.000231193
-0.0002005
-4.01981e-05
-2.00898e-05
-8.92013e-05
-7.43008e-05
0.00675569
0.00776358
0.0785364
0.0714816
0.00658089
0.00692976
0.00827296
0.00660946
0.0014456
0.00142407
-0.000124488
-0.00013085
-5.78385e-05
-6.74651e-05
0.000449209
0.000467849
-1.25286e-05
-3.76906e-05
0.00678006
0.00526212
0.00487398
0.00567646
0.000272734
0.000191333
0.00327897
0.00333332
0.00524684
0.00609525
0.00213296
0.00217635
0.00229755
0.00225897
0.00143835
0.00141123
0.000962277
0.000984472
0.000707647
0.000693529
0.000318005
0.000300884
0.00240181
0.00286777
0.00889021
0.00724676
0.0148452
0.0145469
0.119792
0.122411
0.00716035
0.00702025
0.00620987
0.00627727
0.000825942
0.000794447
0.00125702
0.00121058
0.00191948
0.00227465
0.00224539
0.00230181
0.00193309
0.00559439
0.00619731
0.0057254
0.00667203
0.00729421
0.00693173
-7.1625e-05
-6.77814e-05
0.00206662
0.00195706
0.00444524
0.0041404
0.00371365
0.00349153
0.00312813
0.0034405
0.0092122
0.00890853
0.00690747
0.0084416
0.000408205
0.000451331
-0.000250239
-0.000296002
0.0166602
0.0172645
0.00121018
0.000985892
0.0016701
0.00207895
0.00130877
0.00108138
0.00983367
0.00854265
0.00596982
0.00734787
0.000232849
0.000267075
0.00194734
0.00167223
0.00206688
0.00186632
0.00057511
0.000609222
0.00235072
0.00238864
0.00375632
0.00377166
0.00592576
0.00591165
0.123639
0.119726
0.00700298
0.00696172
0.00648924
0.0116165
0.00278693
0.00269826
-0.000108947
-7.91503e-05
0.000722291
0.00124921
0.000250886
0.000278109
-2.25923e-05
-0.000145914
0.0027981
0.00295601
0.00168472
0.00126564
0.00859278
0.00692802
0.00816103
0.00683072
0.00542186
0.00332997
0.00312199
0.00418842
0.00383658
0.00883493
0.00676352
0.00544886
0.00657346
0.00480744
0.00711164
0.00405975
-9.85596e-05
-9.99476e-05
0.000923503
0.0016265
0.00134849
0.00122758
-3.11311e-05
-0.000126039
-8.66836e-05
-7.20734e-05
0.00299647
0.00376882
0.00430145
0.00363158
0.00393033
0.00486814
0.00523287
0.00573435
0.00484634
0.00601311
0.0055845
0.00634022
0.00315329
0.00282946
0.00297017
0.00324693
0.00305032
0.0039301
0.00369737
0.00627072
0.00735884
0.00497796
0.00594557
0.00773772
0.000549266
0.000111632
0.00245664
0.00180373
-0.000161151
-0.000245968
8.15614e-05
-0.000126263
0.000284487
0.000644464
0.00278074
0.00294543
0.00169625
0.00181543
0.000192131
-7.44261e-05
-0.000199449
-0.000236842
-0.000115296
8.64235e-05
0.0041297
0.00398182
0.0049965
0.00471493
0.00519133
0.00495136
0.0116048
0.0162484
0.00466955
0.00440326
0.00618025
0.00693199
0.00205016
0.00229808
0.00163578
0.00139824
0.00341118
0.00311393
-0.000137114
-5.31401e-05
0.000370414
0.000571111
0.000854599
0.000596584
0.00129505
0.00157526
4.05083e-05
-9.93495e-05
0.000198928
0.000410473
-0.00021276
-0.000129096
-0.000236055
-0.000168283
-0.000129894
-0.000215518
0.000546407
0.000867161
-0.000221223
-0.000178687
-0.000229599
-0.000198549
9.30777e-05
-5.80356e-05
0.0075619
0.00673081
0.0061676
0.00703883
0.00682117
0.00671404
0.00621862
0.00629575
0.00281106
0.00247671
0.000822352
0.00064809
-0.000136836
-0.000139437
-0.000125453
-0.000120074
-0.00010332
-0.000114332
0.000375927
0.000357572
7.02588e-05
5.77656e-05
0.00362371
0.00362005
0.00523839
0.00678522
0.00196034
0.00199643
6.67444e-05
3.42212e-05
0.000104586
6.94785e-05
0.00042465
0.00636274
0.00630327
0.00623641
0.00616326
0.0044635
0.00181406
0.00184875
0.00264253
0.00260093
0.00194436
0.00165296
0.000210787
0.000167591
0.000184171
0.000200867
0.00169447
0.00166386
0.000882409
0.000866716
0.000387166
0.000369769
0.00687625
0.00681835
0.00251913
0.00213873
0.00223399
0.00231517
0.0106198
0.0106181
0.0142522
0.0114582
0.115441
0.116911
0.0826266
0.084172
0.0144202
0.0146758
0.00532524
0.00537724
0.00130102
0.00162833
0.000912379
0.000944272
0.00130376
0.00135554
0.00123222
0.00122476
0.00191535
0.00214325
0.0952189
0.146402
0.00312785
0.00267632
0.00582053
0.00505429
0.00443302
0.0042896
0.00670766
0.00683212
0.00562519
0.00472507
0.00601301
0.00016761
2.91531e-05
0.00106132
0.000990572
0.00499203
0.00520969
0.00465516
0.00366088
0.00393313
0.00381216
0.00416079
0.00883529
0.00647955
0.00564906
0.00660392
0.00723188
0.00989729
0.00987477
0.00329589
0.00286423
-0.000251935
-0.000252903
0.00115913
0.00133668
0.00273624
0.00283475
0.000811706
0.000842906
0.00648389
0.00624276
0.00169958
0.00211249
0.00970207
0.00829847
0.00747726
0.00607795
-9.94375e-06
1.83881e-06
0.000319459
0.000355769
0.00167455
0.00194869
0.0914382
0.0908733
0.069791
0.0955217
0.00534658
0.00616713
0.00243048
0.00247669
0.00309718
0.00308489
0.00594894
0.00597608
0.0052934
0.00526891
0.12498
0.124542
0.00731928
0.00776908
0.00230252
0.00218393
0.00328595
0.00395123
0.00113918
0.00104881
0.000308512
0.000254036
0.000618038
0.00108351
-1.56683e-05
-0.000147291
0.00310946
0.00254665
0.00178226
0.00136387
0.00494584
0.00445902
0.00494226
0.00362851
0.00406743
0.00375279
0.00296717
0.00374844
0.00346187
0.00494778
0.00468581
0.00402621
0.00398971
0.000209798
0.00020525
-5.9999e-05
-0.000138285
-0.000118339
-1.34453e-05
1.76294e-05
-6.29865e-06
0.00139087
0.0015599
0.00339517
0.0031868
0.00450701
0.00480673
0.0041765
0.00408833
0.00380823
0.00413357
0.00427823
0.00489834
0.00423837
0.00449472
0.00700777
0.00927881
0.0108992
0.00895236
0.0105818
0.00295814
0.00251897
0.00270938
0.00380619
0.00345939
0.00473179
0.00448847
0.00495426
0.00637012
0.00560225
0.00833585
0.00638672
0.00525313
0.00625838
0.000530225
9.00851e-05
-0.00019437
-0.000212243
-0.000229595
-0.000244689
-0.000133499
-0.00011242
0.000184993
0.000105601
-0.000118329
0.000772379
0.000351108
0.00245519
0.00261901
0.0010632
0.000976447
-5.2951e-05
0.000241653
0.00385018
0.00371089
0.00442379
0.0047514
0.00448757
0.00429623
0.00665519
0.00586782
0.00991817
0.00936139
0.0119292
0.0165398
0.00711058
0.00861408
0.00793551
0.00563361
0.0019552
0.00219383
-4.62877e-05
-0.000136488
0.000618061
0.000409452
0.000908325
0.00115424
0.00100775
0.000720308
0.00120683
0.00148033
6.47311e-05
-8.67674e-05
-0.000236696
-0.000190548
-0.000236537
-0.000177197
0.000602252
0.000953488
-0.000219716
-0.0001724
-0.000152762
-0.000150186
0.00512409
0.00686171
0.00560294
0.0055738
0.0467136
0.0496426
0.058328
0.0553816
0.0181554
0.01571
0.00182039
0.00211868
0.00125293
0.00127407
0.00106787
0.00125576
0.000576874
0.000555773
-0.00010351
-0.000111747
4.71517e-05
3.40226e-05
-0.000110721
-0.000117782
-7.68744e-05
0.000519975
0.000500507
0.000394122
-9.49255e-05
-8.77434e-05
-5.56452e-05
-4.68199e-05
0.0820169
0.082829
0.00175303
0.00174417
0.00198437
0.00165132
0.0668693
0.0720164
0.00319297
0.00281744
0.00188943
0.00185465
0.00107157
0.00130187
9.16581e-05
5.73924e-05
0.000145634
0.000108053
0.00409911
0.00417538
0.00526365
0.00440405
0.0033588
0.00296414
0.00237939
0.00242619
0.00168377
0.0017152
0.00016047
0.000121904
0.000248278
0.000316033
0.00137498
0.00140133
0.000724378
0.00090033
0.00021766
0.000234323
0.000441123
0.000422744
0.00317272
0.00320383
0.00453975
0.00446388
0.00223327
0.00263473
0.00293729
0.00196568
0.00200613
0.00366052
0.00358471
0.0127795
0.0124432
0.0306184
0.0333191
0.106752
0.104576
0.110621
0.108761
0.134109
0.132522
0.0298527
0.081859
0.0117696
0.0115772
0.0123269
0.0126547
0.00044478
0.000424816
0.00138166
0.00155475
0.00108105
0.00112122
0.0018449
0.00187418
0.0013178
0.00131495
0.0012565
0.00130552
0.00181398
0.00173201
0.00512566
0.0043462
0.143617
0.13947
0.00610986
0.00695496
0.00488083
0.00458688
0.00428618
0.00498576
0.00448746
0.00591707
0.00539107
0.00629502
0.00765792
0.00399233
0.00233911
0.00223341
0.000824816
0.00116544
0.00110282
0.000575861
0.00185378
0.001417
0.00432439
0.00464239
0.00244489
0.00221146
0.00356126
0.00329273
0.00434596
0.00414777
0.00368229
0.00549877
0.00493135
0.00543221
0.00838521
0.00518669
0.00456894
0.00524298
0.0543573
0.0549141
0.000602476
0.00065093
0.00272415
0.00268733
0.000357652
0.00031812
0.00622697
0.00611725
0.00330537
0.00341543
0.000913681
0.000877767
0.0216037
0.0543277
0.00633856
0.00653297
0.00128321
0.00105641
0.00144682
0.00121839
0.00713267
0.00742487
0.0103532
0.0105728
0.00642923
0.00788715
0.00244836
0.00252629
9.47091e-05
0.000120463
0.000395865
0.000438637
0.0010941
0.0010758
0.000439255
0.000444031
0.082352
0.0867568
0.0920767
0.00610604
0.00530692
0.000658366
0.000631
0.00297498
0.00294263
0.00283392
0.00282019
0.00463982
0.00464211
0.122872
0.123546
0.00457627
0.00450335
0.00682995
0.00680526
0.0103087
0.0133681
0.0188888
0.0271236
0.00187439
0.00175224
0.00306917
0.0037402
0.000654944
0.00120987
0.000170828
0.000116029
0.000565566
0.00100202
1.09569e-05
-0.000147558
0.00242596
0.00230539
0.01298
0.0178728
0.00590106
0.00352133
0.00297338
0.00222924
-0.000132623
-4.65907e-05
-4.41922e-05
0.00207544
0.00190012
0.00451034
0.00406993
0.00714447
0.00875194
0.00922921
0.00363053
0.00322858
0.00365642
0.00522861
0.00843477
0.00943645
0.0128131
0.0140792
0.0173988
0.00312249
0.00264952
0.00407859
0.00440898
0.00463729
0.00421376
0.00531022
0.00437469
0.00416247
0.00769109
0.00480718
0.00166802
0.00113033
0.0014588
0.00302711
0.00390743
-0.00024104
-0.000181344
-5.49264e-05
0.000375472
-0.000242126
-0.000118989
0.000133288
-0.000136149
0.000899173
0.000445885
5.57984e-05
-0.00013564
0.00208679
0.00196611
0.00396101
0.00377398
0.00332089
0.00319915
0.00358548
0.00384905
0.00412645
0.00508313
0.00540524
0.00638387
0.00705824
0.024877
0.0203524
0.00783002
0.00450911
0.00491139
0.00654735
0.000366982
0.000168478
-3.60931e-05
-0.00013362
0.000792184
0.00102416
0.00109419
0.00079316
-0.000236363
-0.000194803
0.000250394
2.68791e-05
0.0043002
0.00434061
-0.000180652
-0.000161585
0.0016784
0.00163687
2.21351e-05
1.72194e-05
0.00382003
0.00386586
0.073914
0.0550688
0.036878
0.040353
0.00762153
0.00706823
0.0526465
0.0058603
0.0057948
0.00204542
0.00175338
0.00239323
0.00243375
0.00373633
0.00368287
0.00167361
0.0016527
0.000668465
0.000847098
1.29022e-05
8.20033e-05
-0.000142486
-0.000147799
-0.00011955
-3.55384e-05
2.0758e-05
-8.6037e-05
-9.4933e-05
0.00068154
0.000660769
0.000168824
0.000270446
0.000183133
0.000168777
-2.28735e-05
-3.29605e-05
0.005954
0.00604776
0.00213862
0.002148
0.00321353
0.0032405
0.00234988
0.00517488
0.00681375
0.00413259
0.00420157
0.0014408
0.00170916
0.00223297
0.00255938
5.46667e-05
2.30876e-05
0.000642001
0.000496891
0.000154578
0.000140823
0.000131503
9.4759e-05
0.000198096
0.00656231
0.00651404
0.0054554
0.00557747
0.00300767
0.0030506
0.0029248
0.00285084
0.00233784
0.00268546
0.000628303
0.000608457
0.000192869
0.00015161
0.000270211
0.0011751
0.00119976
0.00132514
0.00130194
0.00110619
0.000283634
0.000266241
0.000658266
0.000638741
0.000404785
0.00588255
0.00710045
0.00534074
0.00525012
0.00345805
0.00395099
0.00307193
0.00299916
0.00826324
0.0083782
0.0686487
0.110444
0.0124175
0.016126
0.0154995
0.0124791
0.0123823
0.01072
0.0108692
0.0139541
0.0136491
0.102632
0.0462314
0.128366
0.127368
0.0809379
0.0801118
0.135809
0.118486
0.0139027
0.0139902
0.0134513
0.0132219
0.00502866
0.00512268
0.000986952
0.0010096
0.00159312
0.00161116
0.0012051
0.00128835
0.00100189
0.00104883
0.000783433
0.000766655
0.00097486
0.000947106
0.00115554
0.00131254
0.0102478
0.010094
0.00135236
0.00140714
0.00187225
0.0022279
0.00167766
0.00168655
0.00400394
0.0040013
0.126227
0.061061
0.0945114
0.00208865
0.00204116
0.000101712
8.05949e-05
0.00352638
0.00319676
0.00331164
0.00405177
0.00750444
0.00911931
0.00409529
0.00751207
0.00722768
0.00719938
-5.37793e-05
-5.26483e-05
5.44739e-05
0.000207709
0.000490627
0.000450889
-2.60672e-05
-0.000141616
0.000520196
0.000436201
0.0021313
0.00164014
0.00536295
0.00701827
0.00301395
0.00280348
0.00236186
0.00215239
0.00469547
0.00425823
0.00389864
0.00340083
0.00376265
0.00328109
0.00389269
0.00409677
0.00549141
0.00465079
0.00585813
-4.87704e-07
0.000112567
-0.000166471
0.00653851
0.00425816
0.00387913
-0.000307884
-0.000305341
0.00180061
0.0014679
0.000852935
0.00116243
0.00566362
0.00643294
0.00160084
0.00155589
0.00500242
0.00491378
0.00410432
0.00423356
0.0019755
0.00202355
0.000846104
0.000881536
0.00220411
0.00176612
0.00643432
0.00658503
0.00449222
0.0054826
0.00125796
0.00103193
0.00269699
0.00328779
0.00150605
0.00127818
0.00239436
0.00220749
0.0101914
0.0102696
0.106411
0.106574
0.00966114
0.0120347
0.00994662
0.0121291
0.0135971
0.0143195
0.00316775
0.00334357
4.98929e-05
7.07395e-05
0.00053125
0.000487298
0.000886881
0.00090508
0.000582114
0.000577133
0.00254569
0.00232203
0.00337269
0.00376899
0.00467552
0.00415522
-4.99957e-06
-4.63137e-06
0.00338785
0.00349425
0.00259684
0.00258256
0.00311228
0.00312997
0.00522263
0.00523435
0.124149
0.124443
0.00550812
0.00558812
0.00478166
0.00474728
0.00690814
0.00686604
0.0149601
0.0165566
0.00224294
0.00217444
0.00218421
0.00178269
0.00203674
0.00286589
0.00269169
0.000722257
0.00126717
0.000225126
0.00971537
0.00220299
0.00232437
-0.000148641
-0.000192874
-0.000165567
0.00261248
0.00322942
0.00226628
0.00241764
0.00437979
0.00578709
0.00862158
0.00444286
0.00732654
0.0168049
0.0228947
0.00586172
0.00699179
0.0134664
0.00243216
0.00231087
0.00503718
0.00554731
0.00475662
0.00435778
0.00529229
0.00571996
0.00790973
0.0064886
0.00654853
0.00167312
0.00112586
0.00288993
0.00368414
-0.000244195
-0.000172414
0.000335546
-5.39015e-05
4.19536e-05
-0.000175158
-0.000246194
-0.000148218
0.000398199
0.000824305
0.00400534
0.00417936
0.00308851
0.00333276
0.0042672
0.0044262
0.00536254
0.00582935
0.0137993
0.0102448
0.00416984
0.000141576
0.000327916
2.61562e-06
-0.000117833
0.000670058
0.000451493
-0.000213437
-0.000125317
0.00385058
0.00389256
-6.55102e-05
1.77221e-05
-0.000170476
-0.000182304
0.00108858
0.00134933
0.00624681
0.00707096
0.000833125
0.000818457
0.00703021
0.00700434
0.0016154
0.00161861
0.00484243
0.00486995
0.005514
0.00725484
0.0452413
0.0429977
0.0737113
0.0436113
0.0500505
0.0476028
0.00583554
0.00599533
0.00200967
0.00172065
0.00208171
0.00178662
0.00404065
0.00397428
0.00217366
0.00214882
0.00191584
0.00189369
0.00103465
0.00100954
0.000245386
0.000274952
0.000498347
0.000360876
-8.79792e-05
-4.35115e-05
-0.000146977
-0.000143387
-2.43626e-05
-1.3101e-05
0.000539414
0.000702496
9.82761e-06
-1.70592e-06
9.58462e-05
0.000108926
1.61256e-05
4.84206e-06
0.0543152
0.0558094
0.0092733
0.00934798
0.00257083
0.00258085
0.0019995
0.00166091
0.00195738
0.00163195
0.00680197
0.00519466
0.00443261
0.00451821
0.00427635
0.00498232
0.00167674
0.00141113
0.00247492
0.0021562
0.000544018
0.000406917
0.00109575
0.00132916
0.00053345
0.000681592
0.000220396
0.00030393
0.000127359
7.90649e-05
0.000266535
0.000352945
0.000117831
8.19162e-05
0.00264073
0.00258818
0.0059124
0.00601474
0.00458573
0.00469502
0.00585844
0.00505002
0.00174716
0.00178023
0.00247827
0.00253403
0.00154816
0.00152072
0.00078185
0.000761429
0.000176231
0.000136447
0.000782133
0.000802695
0.00160478
0.00157618
0.000601225
0.000583468
0.000352316
0.000334655
0.000619692
0.000495037
0.00386787
0.00390677
0.00559951
0.00562246
0.00461682
0.00542702
0.00362847
0.00409792
0.0025733
0.002184
0.00169155
0.00173026
0.00242329
0.00248271
0.00341566
0.00343617
0.00506813
0.00495985
0.00911778
0.00741265
0.0126264
0.0125571
0.121424
0.119872
0.0133335
0.0129623
0.0453222
0.0444924
0.0472674
0.0484492
0.0138204
0.0142553
0.0294558
0.0290981
0.0111942
0.0109946
0.0094093
0.00925241
0.00640145
0.00658068
0.00427601
0.00441496
0.00188398
0.00223902
0.00117031
0.00114733
0.00128554
0.00126911
0.00140969
0.00158127
0.000788202
0.000822036
0.000721602
0.000702028
0.00100741
0.000983428
0.00122574
0.00120081
0.0012257
0.0011899
0.00155995
0.00190515
0.00126923
0.00127428
0.00157961
0.0017232
0.00174282
0.00173814
0.00231217
0.00225094
0.0126508
0.026063
0.0137412
0.0114425
0.0615936
0.0019987
0.002225
0.0127636
0.014826
0.00155357
0.0014375
0.00830713
0.00985957
0.00243117
0.00278788
0.00388003
0.00362819
0.0037674
0.0040369
0.00404011
0.00357179
0.00585254
0.0051251
0.00703947
0.00726996
0.0040176
0.00387563
0.000588673
0.000401859
0.00182259
0.00155403
0.000451469
0.000396224
-0.000108734
-0.000106018
-0.000142102
-8.00796e-05
0.00114219
0.000623911
0.000162822
0.000101104
0.00311358
0.00422612
0.00160818
0.00220933
0.00546733
0.0069489
0.00255482
0.0026468
0.00247835
0.00209599
0.00382831
0.00351593
0.00337549
0.00297979
0.00286653
0.0030238
0.00329233
0.0036124
0.00686007
0.00685797
0.00856591
0.00948409
0.0109531
0.00590263
0.00732566
-0.000212964
-0.000322208
0.00626177
0.00640075
0.00368815
0.00382896
0.00036218
0.000557624
-0.000171511
-0.00016907
-0.000241987
-0.000284353
0.0304016
0.0342367
0.000470185
0.000672199
0.00558512
0.00550953
0.000548724
0.000522841
0.00122667
0.00119253
0.00957766
0.00989368
0.00930638
0.00915164
0.0026862
0.00324936
0.00207267
0.00212292
0.000789044
0.000762076
0.00705893
0.00877295
0.00428905
0.00518044
0.00231583
0.00185858
0.00928433
0.00872618
0.00596531
0.00587693
0.00158673
0.00198337
0.00123396
0.00100861
0.00492572
0.00604523
0.00324091
0.0026577
0.00147631
0.00124794
0.00176898
0.00155013
0.0092653
0.00782183
0.0207712
0.0214893
0.00205295
0.00172341
0.00950883
0.011843
0.00980897
0.0121611
0.00954074
0.0027643
0.00282335
0.00306559
0.00323406
0.000200841
0.000172368
0.00142011
0.00118788
0.000752741
0.000763478
0.000124052
0.000121062
0.00180769
0.00182182
0.00212497
0.00192035
0.00209804
0.00189317
0.00274117
0.00303711
0.00476178
0.00419936
0.0534107
0.105873
0.0070244
0.00949703
-6.0901e-05
-5.88206e-05
0.00366973
0.00377668
0.00206029
0.00203399
0.00350158
0.00353531
0.00291438
0.00288971
0.00415276
0.00414786
0.00940948
0.00944267
0.00938198
0.00935229
0.0171993
0.0181707
0.00492079
0.0049835
0.00535719
0.00532256
0.00968785
0.00972289
0.037365
0.0302015
0.014009
0.00244098
0.00259782
0.00188197
0.00178956
0.00111548
0.00101182
-0.000195944
-0.000196385
-0.000196758
0.00470679
0.00404676
0.0039075
0.00311302
0.00269385
0.00557741
0.0306586
0.0253841
0.0125554
0.0108129
0.0102344
0.0123315
0.00332043
0.00348751
0.00390938
0.003684
0.00724414
0.00455504
0.000172285
0.00067093
0.0021045
0.00194875
0.00232025
0.00224769
0.000238214
-8.80438e-05
-0.000236635
-0.000188449
-0.000157327
8.53906e-05
0.00407011
0.00427369
0.00345056
0.00358119
0.00646482
0.00759878
0.00011809
0.000292785
0.00357263
0.00353
0.00114292
0.00119733
0.00014387
0.000139859
0.00156623
0.00154705
-0.000157377
-0.000153006
0.000839179
0.00108658
0.0874653
0.0723972
0.0310568
0.0320635
0.00155277
0.00157608
0.000805122
4.33135e-05
2.01675e-05
0.00511034
0.00688207
0.00465807
0.00467353