/*--------------------------------*- C++ -*----------------------------------*\
  =========                 |
  \\      /  F ield         | OpenFOAM: The Open Source CFD Toolbox
   \\    /   O peration     | Website:  https://openfoam.org
    \\  /    A nd           | Version:  7
     \\/     M anipulation  |
\*---------------------------------------------------------------------------*/
FoamFile
{
    version     2.0;
    format      ascii;
    class       volScalarField;
    location    "1680";
    object      T;
}
// * * * * * * * * * * * * * * * * * * * * * * * * * * * * * * * * * * * * * //

dimensions      [0 0 0 1 0 0 0];

internalField   nonuniform List<scalar> 
238806
(
0.166025
0.154761
0.491006
0.721732
0.625895
0.155417
0.17263
0.121439
0.128105
0.321913
0.301492
0.615317
0.136655
0.124441
0.865445
0.822214
0.370128
0.341129
0.108125
0.124299
0.120603
0.124978
0.681518
0.536203
0.698377
0.450669
0.433189
0.503112
0.562419
0.726399
0.1467
0.152551
0.256977
0.230688
0.173289
0.172532
0.996328
0.996432
0.292929
0.267351
0.277257
0.712889
0.168842
0.168959
0.120627
0.109
0.396796
0.359746
0.204956
0.178255
0.135223
0.151115
0.133389
0.121253
0.587997
0.611727
0.338222
0.340079
0.31043
0.37499
0.346229
0.413412
0.253809
0.232231
0.218327
0.143678
0.118745
0.135095
0.175225
0.128334
0.122035
0.203761
0.228499
0.167066
0.191368
0.130015
0.119809
0.172441
0.171491
0.244942
0.24546
0.225645
0.19527
0.162683
0.130293
0.127169
0.124248
0.513969
0.551786
0.502065
0.497576
0.321575
0.30164
0.164916
0.23058
0.180379
0.179689
0.273161
0.311659
0.754404
0.109718
0.0973667
0.103901
0.134712
0.156259
0.138294
0.148218
0.150897
0.16964
0.216813
0.242284
0.124115
0.117834
0.153862
0.138905
0.150086
0.147149
1.03174
1.04179
1.03779
0.830463
0.986204
0.133533
0.161992
0.153662
0.171263
0.694011
0.881156
0.482678
0.611375
0.283189
0.381285
0.439865
0.749181
0.421328
0.339337
0.127202
0.127706
0.675573
0.752946
0.642668
0.750809
0.242532
0.241412
0.33634
0.096512
0.111495
0.101331
0.0989758
0.0986255
0.106581
0.103549
0.100197
0.177225
0.195426
0.135987
0.148433
0.191818
0.21553
0.12072
0.123789
0.133028
0.122361
0.122289
0.1073
0.151441
0.149232
0.246162
0.237162
0.988737
0.988991
0.21205
0.185425
0.947617
0.916332
1.05173
0.132159
0.162836
0.143881
0.125908
0.735092
0.938271
0.855633
0.440927
0.431946
0.40464
0.370569
0.5388
0.166403
0.166743
0.129816
0.129831
0.272153
0.386713
0.337928
0.351162
0.299645
0.680264
0.867507
0.552019
0.717007
0.172831
0.130087
0.151584
0.19596
0.142571
0.183798
0.136891
0.132542
0.103723
0.099248
0.451532
0.48293
0.206227
0.225961
0.23753
0.214585
0.323378
0.287158
0.179618
0.158176
0.117045
0.121994
0.11563
0.123337
0.108918
0.123743
0.165845
0.164616
0.248058
0.245207
0.350902
0.342812
0.429229
0.420734
0.75308
0.767267
0.124284
0.128165
0.408135
0.434057
0.976939
1.00063
0.306768
0.306851
0.135278
0.161039
0.120814
0.138582
0.115858
0.116935
0.178087
0.171049
0.324246
0.357235
0.391143
0.408739
0.32942
0.33589
0.236118
0.23824
0.130636
0.130154
0.174691
0.182442
0.139025
0.144012
0.289288
0.265133
0.379385
0.409008
0.266293
0.549552
0.490632
0.66337
0.573964
0.13186
0.174482
0.0989811
0.122433
0.107325
0.096541
0.1143
0.116008
0.155415
0.166591
0.135221
0.112459
0.269108
0.257255
0.376993
0.407456
0.198412
0.217292
0.235935
0.258606
0.239786
0.266009
0.269802
0.301993
0.181209
0.203497
0.15594
0.14633
0.128273
0.141355
0.158624
0.14527
0.126824
0.117485
0.162929
0.173131
0.153669
0.167162
0.109871
0.11244
0.626353
0.626514
0.262949
0.259813
0.324898
0.330348
0.249854
0.249494
0.498131
0.506371
0.771157
0.757279
1.03576
0.201252
0.177559
0.825444
0.721308
0.745519
0.757519
0.119493
0.117794
0.636081
0.638104
0.2804
0.339868
0.152419
0.169554
0.123166
0.141176
0.118153
0.128019
0.778192
0.724127
0.577952
0.769606
0.527253
0.53445
0.456339
0.502531
0.143311
0.146188
0.125122
0.168991
0.169391
0.171643
0.181056
0.256729
0.201136
0.368204
0.263824
0.666999
0.593421
0.789073
0.255289
0.238951
0.464602
0.394522
0.818402
0.614084
0.498186
0.583904
0.196244
0.255459
0.348355
0.247889
0.140512
0.117276
0.173444
0.227731
0.162329
0.212211
0.141222
0.14583
0.155347
0.163339
0.156389
0.135645
0.121819
0.101116
0.167452
0.158211
0.100348
0.101833
0.108766
0.10596
0.444626
0.418072
0.132142
0.12614
0.191548
0.209574
0.224948
0.246505
0.276779
0.303852
0.333276
0.366471
0.171997
0.192565
0.14351
0.153128
0.125445
0.136335
0.142246
0.156364
0.113967
0.110236
0.174256
0.17336
0.155922
0.168548
0.107542
0.298332
0.294511
0.243389
0.240799
0.276123
0.280559
0.263693
0.260323
0.350923
0.358815
0.344848
0.337925
0.487627
0.496885
0.964023
0.97173
0.560306
0.550561
0.398257
0.357667
0.366466
0.286691
0.268818
0.855609
0.951882
0.79009
0.92798
0.575244
0.599131
0.17408
0.172496
0.541761
0.537021
1.08136
1.12296
0.962263
1.08535
0.370649
0.300921
0.113648
0.119099
0.160421
0.174772
0.11539
0.155227
0.138111
0.152964
0.504884
0.483931
0.638231
0.80735
0.380891
0.549567
0.419806
0.163207
0.225307
0.109131
0.126672
0.108381
0.108236
0.177454
0.183895
0.15466
0.157332
0.16808
0.169951
0.191004
0.180299
0.243876
0.209577
0.718558
0.37265
0.340422
0.451383
0.758082
0.778115
0.650858
0.790294
0.466932
0.452014
0.225157
0.241159
0.229825
0.314114
0.132736
0.174278
0.110343
0.110117
0.10401
0.13553
0.116568
0.097343
0.128162
0.126386
0.119617
0.11815
0.120489
0.118388
0.156965
0.167018
0.0996034
0.115979
0.160054
0.168387
0.115277
0.13763
0.100283
0.105458
0.378047
0.392068
0.817854
0.691562
0.139729
0.130276
0.151701
0.140706
0.180856
0.165151
0.204313
0.184859
0.215049
0.235654
0.261705
0.287162
0.3121
0.342621
0.154244
0.139983
0.164141
0.18285
0.159062
0.168439
0.12166
0.126863
0.123322
0.132312
0.155207
0.136233
0.164161
0.152927
0.143456
0.161496
0.101628
0.103011
0.103865
0.105515
0.174107
0.174977
0.115222
0.118153
0.898157
0.903828
0.782165
0.776526
0.256529
0.253752
0.249841
0.24083
0.328065
0.322873
0.435417
0.439583
0.453048
0.508481
0.418379
0.429192
0.488758
0.479603
0.98956
0.990432
0.997719
0.997817
0.700537
0.696797
0.835564
0.820143
0.489133
0.545349
0.393571
0.543374
0.343725
0.320401
0.238987
0.26472
0.355889
0.31517
0.696618
0.590184
0.491887
0.50493
0.999002
0.998573
0.347356
0.391668
0.27768
0.276956
1.10927
1.10858
1.05381
1.06975
1.14568
1.13552
0.263796
0.318013
0.212521
0.216175
0.115685
0.118796
0.128531
0.126742
0.159072
0.174396
0.141769
0.147171
0.160979
0.153783
0.79971
0.999377
0.248196
0.229594
0.315441
0.362119
0.40922
0.4679
0.636421
0.161798
0.217925
0.321171
0.313471
0.110524
0.126616
0.128082
0.128006
0.178771
0.184654
0.128899
0.132427
0.173219
0.181748
0.128405
0.133959
0.200177
0.206716
0.500217
0.584663
0.472208
0.734796
0.288064
0.269635
0.422078
0.436328
0.40743
0.21951
0.201857
0.359521
0.411829
0.86845
0.666511
0.18645
0.175658
0.248782
0.348393
0.117697
0.141778
0.185317
0.244696
0.118771
0.114888
0.119066
0.129616
0.1497
0.156745
0.165489
0.137114
0.138905
0.116448
0.11471
0.103762
0.125796
0.146783
0.137103
0.120271
0.141315
0.159252
0.167918
0.116862
0.112406
0.279717
0.292493
0.368378
0.352096
0.590216
0.676291
0.401668
0.439644
0.174405
0.157533
0.13657
0.12838
0.15594
0.143729
0.160498
0.175033
0.214272
0.193626
0.248121
0.272087
0.29354
0.322193
0.161251
0.144905
0.140838
0.150927
0.121244
0.123109
0.117651
0.119197
0.131859
0.147577
0.135914
0.125024
0.170675
0.168258
0.107158
0.110581
0.102692
0.12932
0.125953
0.175895
0.17513
0.120526
0.117305
0.130114
0.126912
0.143125
0.145392
1.04402
1.02193
1.04867
1.04869
0.221609
0.226373
0.255275
0.259284
0.281154
0.277036
0.253633
0.250413
0.366042
0.373511
0.443684
0.496019
0.352576
0.363791
0.369994
0.36353
0.313677
0.30769
0.370595
0.363321
0.46977
0.478596
0.897336
0.889476
0.98182
0.979559
0.991861
0.992455
1.03913
1.03922
0.992987
0.993792
0.709631
0.712649
1.03025
1.02749
1.01835
0.341364
0.396415
0.264067
0.236719
0.289315
0.149546
0.150408
0.381094
0.405031
0.362398
0.335527
0.19639
0.180277
0.248356
0.225201
0.512139
0.540822
0.509907
0.502469
0.166115
0.168693
0.762893
0.77713
0.528991
0.541723
0.667707
0.68962
0.972165
0.978694
0.154389
0.152275
0.178313
0.176009
0.229744
0.229007
0.276521
0.276348
0.640602
0.64167
0.930682
0.763496
0.869066
0.75766
0.746123
0.2484
0.266143
0.293128
0.356734
0.152321
0.157082
0.166192
0.119525
0.113418
0.126092
0.116571
0.115454
0.176013
0.16426
0.153086
0.130648
0.184693
0.19473
0.473627
0.58792
0.208807
0.196478
0.411821
0.353548
0.454373
0.583659
0.219355
0.161197
0.372982
0.527926
0.172834
0.173792
0.108572
0.108929
0.176103
0.183162
0.135849
0.139174
0.217585
0.172831
0.169752
0.159132
0.148703
0.154109
0.501307
0.415994
0.509807
0.77489
0.941332
0.787007
0.26175
0.245264
0.322435
0.303649
0.558833
0.672458
0.291661
0.309729
0.513961
0.4235
0.490666
0.490124
0.131532
0.167482
0.247415
0.351019
0.128839
0.101256
0.162571
0.14824
0.117096
0.121881
0.125005
0.156871
0.157626
0.165775
0.151166
0.110741
0.0987131
0.160704
0.168873
0.100696
0.101843
0.364057
0.35093
0.408356
0.427677
0.616416
0.534892
0.390287
0.363091
0.45007
0.143643
0.132785
0.12568
0.130719
0.187633
0.170691
0.203538
0.225306
0.282894
0.254071
0.157162
0.167124
0.123299
0.123039
0.129243
0.123277
0.122421
0.119318
0.120306
0.116997
0.138673
0.12772
0.147098
0.163512
0.164108
0.169339
0.161184
0.142608
0.102822
0.102281
0.123492
0.176851
0.175984
0.135502
0.132494
0.14421
0.141318
0.656895
0.759432
1.04522
1.02397
0.761743
0.629191
0.771857
0.626567
0.18214
0.179598
0.261478
0.257787
0.27845
0.274645
0.256725
0.26044
0.317799
0.31956
0.567232
0.496999
0.452536
0.505685
0.335728
0.346307
0.414493
0.424035
0.493772
0.553796
0.332693
0.339523
0.313799
0.307719
0.31489
0.309173
0.415945
0.424606
0.398745
0.390681
0.470672
0.461936
0.452941
0.461227
0.974908
0.968106
0.987551
0.987296
1.02617
1.02633
0.986224
0.984364
0.830953
0.840965
0.707919
0.696024
0.858697
0.848926
0.857827
0.85638
0.159369
0.163324
0.138965
0.420062
0.46305
0.429999
0.497757
0.542104
0.516379
0.225252
0.228742
0.159786
0.151792
0.377897
0.35155
0.312684
0.292635
0.256245
0.28558
0.720846
0.707317
0.56237
0.677664
0.114685
0.112098
0.168183
0.171381
0.990017
0.991062
0.514429
0.538494
0.554512
0.541922
0.562626
0.586642
0.959677
0.946634
0.895081
0.915593
0.13215
0.129263
0.194751
0.182916
0.182799
0.173079
0.136001
0.133962
0.18549
0.187428
0.307019
0.307555
0.474158
0.473987
1.10247
1.09365
0.537998
0.537907
0.859356
0.799892
0.206601
0.199426
0.171472
0.166797
0.114321
0.117733
0.133478
0.130938
0.162943
0.175523
0.207836
0.220851
0.132637
0.119915
0.626847
0.521389
0.601146
0.513408
0.416281
0.251556
0.234553
0.322229
0.294236
0.668824
0.513721
0.416177
0.499486
0.367488
0.541122
0.309668
0.169971
0.17042
0.110209
0.12809
0.117285
0.114023
0.145462
0.162184
0.151826
0.148749
0.216484
0.279177
0.321487
0.268154
0.292349
0.36621
0.394072
0.431789
0.365357
0.450699
0.420812
0.472937
0.227953
0.202015
0.21319
0.235623
0.219921
0.291241
0.272736
0.465626
0.540661
0.370597
0.442137
0.573308
0.116565
0.138079
0.171913
0.132627
0.159543
0.163117
0.143045
0.159747
0.13137
0.119513
0.197654
0.210453
0.129083
0.134379
0.109581
0.132501
0.153535
0.166186
0.139612
0.117851
0.313796
0.302277
0.380091
0.358974
0.396905
0.379189
0.787385
0.952899
0.35253
0.331882
0.461996
0.512005
0.15202
0.167169
0.134069
0.127022
0.251008
0.226662
0.171804
0.164148
0.136894
0.129328
0.120318
0.124574
0.121846
0.129159
0.150588
0.162498
0.141302
0.130388
0.162576
0.145175
0.169779
0.165598
0.144061
0.161769
0.101518
0.102717
0.171541
0.160558
0.177843
0.176786
0.123705
0.138419
0.751004
0.648235
0.759539
0.630608
0.628008
0.627168
0.632679
0.635842
0.264056
0.244726
0.182543
0.188326
0.254158
0.251331
0.263365
0.267528
0.273012
0.27178
0.243068
0.239961
0.301216
0.296848
0.421513
0.427511
0.493025
0.563407
0.263067
0.268213
0.356005
0.359498
0.374442
0.378641
0.340276
0.596818
0.584895
0.573458
0.562938
0.443611
0.330411
0.336966
0.324844
0.318512
0.301838
0.300545
0.42192
0.428512
0.436314
0.444374
0.37587
0.367993
0.383772
0.376142
0.459476
0.450839
0.710735
0.699909
0.404631
0.400037
0.968835
0.972672
0.984594
0.986093
0.987022
0.991192
1.0263
1.02627
1.01868
1.01869
0.992763
0.992866
0.803109
0.814121
0.556287
0.549241
0.750147
0.730629
0.869308
0.878354
0.831681
0.846461
0.925632
0.922153
1.03012
1.04118
0.228257
0.192234
0.436843
0.380342
0.333228
0.321966
0.500806
0.507412
0.422334
0.355049
0.450752
0.137812
0.152963
0.107002
0.105209
0.423347
0.441935
0.395647
0.307369
0.331575
0.319347
0.350871
0.721643
0.534074
0.471354
0.544542
0.589305
0.791548
0.772116
0.275691
0.238114
0.16541
0.16271
0.718185
0.691064
0.926473
0.93528
0.751876
0.75387
0.722885
0.649905
0.56748
0.555079
0.955659
0.940351
0.922982
0.903937
0.162488
0.159354
0.129607
0.12699
0.180912
0.192803
1.06184
1.06032
1.0364
1.05156
0.443129
0.502957
0.189752
0.192507
0.250667
0.250435
0.482456
0.485292
0.427509
0.426457
1.10794
1.10578
0.620428
0.62692
0.168677
0.160084
0.247431
0.301496
0.113801
0.112114
0.127131
0.130408
0.116935
0.115752
0.161671
0.175114
0.233119
0.187511
0.137249
0.121892
0.380658
0.344692
0.381186
0.276509
0.311767
0.286143
0.221837
0.286559
0.263267
0.378688
0.358975
0.307011
0.304182
0.131223
0.132484
0.15127
0.166549
0.159819
0.142376
0.13019
0.133102
0.116847
0.122396
0.249223
0.232077
0.3394
0.363047
0.313896
0.305212
0.28281
0.308714
0.320168
0.369268
0.318151
0.337936
0.524193
0.678044
0.779548
0.650346
0.743159
0.212068
0.178604
0.19333
0.281032
0.252837
0.354252
0.335952
0.371627
0.472935
0.418855
0.618297
0.474569
0.391082
0.465151
0.116943
0.139297
0.161769
0.163151
0.159795
0.164795
0.157645
0.137188
0.104605
0.14085
0.15858
0.115734
0.127697
0.173517
0.185417
0.113705
0.113788
0.129323
0.106602
0.290639
0.279732
0.339435
0.365848
0.341575
0.326757
0.496281
0.442551
0.694643
0.665112
0.80013
0.956696
0.522688
0.619761
0.576142
0.424418
0.147461
0.16105
0.162652
0.170836
0.127184
0.134328
0.122124
0.122879
0.118757
0.120501
0.120958
0.126745
0.148048
0.160664
0.171215
0.169426
0.170227
0.166981
0.100818
0.104006
0.170013
0.158215
0.24353
0.239752
0.473046
0.544409
0.519704
0.529807
0.956354
0.968989
0.981684
0.972696
0.838109
0.82196
0.243778
0.251186
0.199314
0.202563
0.183621
0.182883
0.208673
0.205855
0.260479
0.257159
0.265866
0.262597
0.269082
0.26524
0.27095
0.232613
0.229504
0.246302
0.285092
0.289721
0.309208
0.314332
1.05606
1.05645
0.367764
0.359221
0.307255
0.300174
1.02577
1.04577
0.309064
0.285842
0.253166
0.248408
0.294255
0.287456
0.36816
0.372117
0.394102
0.39909
0.443561
0.453919
0.499259
0.443698
0.356794
0.334665
0.326386
0.333038
0.30623
0.312039
0.400896
0.406206
0.43694
0.425868
0.375012
0.382886
0.406807
0.391532
0.452651
0.461127
0.486565
0.477314
0.61618
0.630685
0.506648
0.495636
0.419564
0.424996
0.415751
0.733507
0.746699
0.972217
0.968671
0.99055
0.989905
0.999418
1.00075
1.0255
1.02502
1.0261
1.02585
1.03929
1.03934
0.997821
1.01884
0.992159
0.991631
0.993213
0.993766
0.560442
0.550721
0.707406
0.690502
0.816105
0.827096
0.70927
0.724022
0.853523
0.867072
0.859294
0.868694
0.941927
0.935122
0.968733
0.967146
1.03226
1.02934
0.462024
0.519065
0.367459
0.344825
0.321968
0.374945
0.337039
0.443871
0.405058
0.471446
0.566199
0.298283
0.187068
0.178899
0.109164
0.114785
0.108246
0.10453
0.14486
0.120757
0.366924
0.393832
0.192901
0.172971
0.297588
0.272375
0.364615
0.347379
0.306298
0.459718
0.414026
0.454175
0.680319
0.435384
0.385337
0.438436
1.02956
0.868565
0.111102
0.109197
0.228973
0.22493
0.523827
0.53069
0.868196
0.857669
0.924966
0.933959
0.776755
0.765377
0.918485
1.01333
0.663454
0.735857
0.550226
0.574323
0.627326
0.650312
0.86407
0.80719
0.987554
0.988411
0.927162
0.942027
0.98285
0.985227
0.142484
0.139078
0.12445
0.122078
0.148207
0.149736
0.187735
0.190226
1.07179
1.04423
1.03556
0.497373
0.439084
0.137099
0.139015
0.235743
0.233719
0.228518
0.228249
0.382331
0.383392
1.1075
1.10837
0.367351
0.362187
0.537041
0.537402
0.867354
0.87533
1.07126
1.24844
0.141007
0.134976
0.229824
0.284569
0.113976
0.115307
0.137089
0.142252
0.118734
0.115342
0.157423
0.173702
0.178159
0.169215
0.871382
1.06803
0.448787
0.267623
0.221625
0.161845
0.164419
0.148432
0.139084
0.148838
0.139006
0.338051
0.303367
0.532593
0.649696
0.682546
0.268174
0.235496
0.270602
0.394256
0.622328
0.684324
0.876815
0.905401
1.03618
0.224995
0.188126
0.302564
0.328333
0.346634
0.313522
0.398631
0.324544
0.30808
0.568628
0.357707
0.126802
0.110062
0.120677
0.216854
0.287657
0.160921
0.160894
0.127129
0.094173
0.165332
0.156653
0.108752
0.141171
0.114237
0.122654
0.145404
0.161056
0.149109
0.142397
0.297146
0.282384
0.246661
0.237201
0.269944
0.291949
0.315003
0.387694
0.411226
0.480748
0.52698
1.10369
1.03951
0.571716
0.34118
0.37274
0.486865
0.133054
0.14384
0.160876
0.16968
0.124708
0.123536
0.118689
0.118863
0.171839
0.170493
0.110302
0.124921
0.358668
0.363057
0.213676
0.207187
0.322792
0.316457
0.281861
0.277652
0.330529
0.335612
1.04695
0.990963
0.910102
0.927113
0.767824
0.764533
0.964434
0.483291
0.47511
0.241787
0.234888
0.258106
0.263192
0.321859
0.316078
0.186659
0.183996
0.190534
0.18473
0.239727
0.23256
0.250578
0.247037
0.253894
0.266214
0.259479
0.267361
0.263876
0.223587
0.220448
0.267193
0.256982
0.305693
0.301156
0.312843
0.307999
0.8285
0.83377
0.366919
0.37526
0.367177
0.373496
0.31962
0.482215
0.553057
0.399426
0.40752
0.263783
0.263906
0.266256
0.279262
0.350146
0.353401
0.299474
0.311681
0.367236
0.361186
0.387418
0.392126
0.386125
0.643507
0.632009
0.519626
0.531415
0.341222
0.347792
0.361254
0.352795
0.320027
0.331304
0.349684
0.344071
0.414797
0.420906
0.412128
0.402013
0.410566
0.360104
0.353045
0.37809
0.453397
0.445034
0.456498
0.447538
0.468287
0.617355
0.686953
0.554093
0.542875
0.444679
0.470859
0.43713
0.426058
0.840743
0.850898
1.01124
1.0396
0.991467
0.993141
0.992891
0.987659
0.986382
0.987423
0.988566
0.986708
0.986345
1.02466
0.995836
1.03968
1.03991
1.01895
1.01907
1.03924
1.02626
0.992406
0.992515
0.992987
0.992704
0.988217
0.989532
0.53795
0.548985
0.522305
0.53566
0.755172
0.738527
0.744314
0.732715
0.632082
0.618624
0.744364
0.763546
0.766859
0.752891
0.961643
0.957651
0.878955
0.887675
0.846969
0.845109
0.925953
0.916388
0.99748
0.996325
1.01928
0.998532
1.00837
0.15836
0.156394
0.139046
0.141992
0.261029
0.233847
0.243326
0.303342
0.553163
0.664879
0.306456
0.556925
0.531885
0.528135
0.219023
0.222817
0.148599
0.1332
0.109074
0.110779
0.148009
0.165776
0.105318
0.107714
0.163724
0.129926
0.449679
0.583925
0.247155
0.226897
0.1859
0.16859
0.395749
0.35913
0.328031
0.280522
0.313361
0.27028
0.324391
0.342316
0.459297
0.390651
0.486525
0.117981
0.109404
0.126536
0.454702
0.376707
0.319678
0.161277
0.163645
0.211455
0.207157
0.243731
0.239964
0.699031
0.769478
0.84677
0.835779
0.836516
0.824718
0.929011
0.93776
0.874729
0.883581
0.763361
0.774731
0.420396
0.425889
0.676979
0.748631
0.587007
0.632884
0.538084
0.562211
0.578971
0.587796
0.654202
0.676488
0.917373
0.92716
0.986549
0.987072
1.03636
1.03574
0.965238
0.976044
0.970108
0.978241
0.984048
0.984846
0.995239
0.997066
0.149418
0.145991
0.121411
0.123476
0.148467
0.146629
0.181915
0.179512
0.20971
0.194091
0.282731
0.317142
0.388873
0.345546
0.199105
0.201159
0.266342
0.274742
0.209611
0.209439
0.251169
0.251918
0.428857
0.430663
1.10911
1.10918
0.439524
0.44452
0.387182
0.385226
0.537279
0.537063
0.880238
0.884619
0.171728
0.16772
0.159172
0.135265
0.150578
0.213267
0.199111
0.113449
0.117007
0.136026
0.696877
0.165742
0.172996
0.159899
0.172476
0.163677
0.186282
0.235187
0.163107
0.173056
0.328275
0.434818
0.642307
0.333308
0.543366
1.01665
1.2266
0.439023
0.514444
0.887514
0.172597
0.16448
0.376804
0.414205
0.353716
0.323289
0.394338
0.425589
0.585357
0.482294
0.486673
0.127682
0.111307
0.205837
0.269717
0.162025
0.160306
0.0956384
0.127746
0.117598
0.148326
0.164061
0.158651
0.125121
0.115484
0.302806
0.316456
0.228736
0.248873
0.325857
0.338098
0.40681
0.441418
0.875434
0.718053
0.313585
0.146289
0.135681
0.155111
0.165695
0.125128
0.131712
0.161974
0.143985
0.300009
0.302705
0.18245
0.175397
0.22118
0.220423
0.294642
0.29207
0.577797
0.653814
0.198371
0.195685
0.530072
0.531741
0.211493
0.208547
0.399177
0.400232
0.756559
0.634274
0.942681
0.936348
1.04789
0.942406
0.956682
0.949505
0.556681
0.546068
0.237276
0.230626
0.246422
0.239271
0.354007
0.347165
0.205241
0.202166
0.194235
0.191406
0.181345
0.179043
0.227302
0.229198
0.195123
0.203218
0.250936
0.245985
0.24358
0.247438
0.269609
0.273133
0.235827
0.226817
0.280558
0.276782
0.310313
0.31505
0.308215
0.303624
0.999614
1.00331
0.753241
0.760118
0.38128
0.389381
0.313501
0.306479
0.290159
0.28264
0.556315
0.48563
0.656212
0.668809
0.393087
0.440792
0.258974
0.259013
0.26841
0.256077
0.2765
0.288114
0.2995
0.292721
0.322053
0.309601
0.357835
0.346835
0.355266
0.362008
0.37599
0.364319
0.380866
0.38531
0.362983
0.355072
0.565879
0.57716
0.465268
0.477115
0.525216
0.470199
0.317985
0.324097
0.340033
0.34742
0.339425
0.332965
0.3368
0.331209
0.407782
0.413471
0.431803
0.440614
0.353142
0.346146
0.430316
0.421954
0.442358
0.433998
0.438819
0.454821
0.642094
0.65631
0.594371
0.602719
0.517802
0.565174
0.468309
0.49324
0.414518
0.409568
0.745341
0.758121
0.909524
0.917543
0.997235
0.99687
0.964422
0.959779
0.977765
0.971795
0.989643
0.988737
1.04124
1.04133
0.985921
0.985403
0.995663
0.995508
0.996053
0.996319
0.995236
0.995637
0.997854
0.997898
0.99024
0.989328
0.991259
0.99041
0.992005
0.993337
0.988892
0.990629
0.463856
0.463508
0.529515
0.518447
0.542908
0.529778
0.720543
0.703861
0.722932
0.724759
0.65279
0.639473
0.757803
0.776486
0.710577
0.696181
0.792806
0.779984
0.743133
0.73864
0.85697
0.842817
0.880002
0.872383
0.924665
0.93335
0.964811
0.960619
0.998903
0.993762
0.996291
0.989627
0.999153
0.15486
0.168359
0.798806
0.860653
0.12088
0.11719
0.603103
0.698792
0.173262
0.201381
0.289585
0.269124
0.279442
0.30082
0.301081
0.263851
0.439018
0.385336
0.526558
0.544541
0.343565
0.331357
0.123456
0.129862
0.145671
0.130265
0.114803
0.117772
0.1713
0.170512
0.166171
0.165797
0.109787
0.104518
0.124002
0.13035
0.254785
0.352985
0.127642
0.169588
0.458418
0.579845
0.203431
0.212131
0.197103
0.164502
0.321658
0.292801
0.279069
0.242006
0.231199
0.245798
0.2706
0.299826
0.567613
0.567121
0.673175
0.72326
0.832276
0.487721
0.604541
0.135476
0.142428
0.444445
0.449382
0.305261
0.315879
0.117843
0.113307
0.160088
0.157192
0.177091
0.180157
0.823801
0.839784
0.164339
0.156523
0.685539
0.672267
0.572019
0.559949
0.742447
0.730351
0.944824
0.94997
0.980368
0.978286
0.920915
0.919276
0.892007
0.900008
0.657706
0.645158
0.828099
0.752996
0.458667
0.509221
0.452465
0.457494
0.925491
0.914523
0.817019
0.805483
0.516947
0.503974
0.526119
0.550235
0.67169
0.716286
0.573768
0.565135
0.640702
0.663363
0.762137
0.780543
0.940822
0.919962
0.999308
0.999771
0.841497
0.848895
0.96224
0.974514
0.967868
0.977293
0.963689
0.952879
0.957488
0.994076
0.995976
0.135212
0.138294
0.174659
0.169754
0.154081
0.152109
0.213164
0.210493
0.189608
0.192142
0.180792
0.170042
0.181795
0.171444
0.230306
0.254155
0.398852
0.352168
0.996437
1.07503
0.564266
0.683297
0.205833
0.207725
0.290541
0.298922
0.169524
0.169039
0.28189
0.284083
0.232069
0.230751
0.341818
0.342251
0.659813
0.665783
0.64597
0.648436
0.886905
0.890118
0.395852
0.39999
0.430722
0.428912
0.639711
0.638645
1.15456
1.15856
0.911366
0.179437
0.191139
0.147766
0.143759
0.111656
0.110122
0.177384
0.176346
0.171577
0.356187
0.304049
0.292222
0.226223
0.193044
0.419891
1.18513
1.16815
0.827787
0.740423
0.712806
0.823745
0.241165
0.25474
0.287808
0.269654
0.535539
0.338517
0.134847
0.114202
0.148688
0.14146
0.162512
0.157738
0.100907
0.133283
0.159993
0.161367
0.14494
0.11313
0.306763
0.322775
0.258039
0.268278
0.485055
0.558868
0.148615
0.13825
0.275719
0.272955
0.125803
0.125588
0.174555
0.172938
0.173707
0.171336
0.240052
0.23595
0.339724
0.330256
1.0559
1.03127
0.916034
0.921862
0.243388
0.247814
0.193051
0.304574
0.316162
0.470363
0.541906
0.417117
0.420439
0.255145
0.253652
0.396213
0.35279
0.45752
0.529682
0.755774
0.636469
0.75781
0.6323
1.04621
1.0434
0.487163
0.49694
0.330915
0.325927
0.232886
0.226481
0.253153
0.325729
0.332394
0.308893
0.314952
0.220127
0.216745
0.202457
0.199787
0.195106
0.188878
0.180437
0.178024
0.215702
0.218289
0.222504
0.220155
0.251124
0.248569
0.250674
0.247492
0.25754
0.248508
0.233603
0.230158
0.264052
0.260456
0.284245
0.280317
0.286394
0.282366
0.299268
0.304188
0.292458
0.288291
0.312924
0.983588
0.979905
0.935556
0.937549
0.8389
0.844054
0.366471
0.387645
0.384851
0.320137
0.313069
0.295632
0.28828
0.340736
0.378528
0.616279
0.545977
0.75694
0.647761
0.540067
0.477216
0.360646
0.368112
0.291614
0.315369
0.271546
0.284899
0.2611
0.273768
0.338833
0.341615
0.304862
0.298106
0.316799
0.30447
0.352006
0.341215
0.365733
0.351629
0.345903
0.379716
0.37342
0.38639
0.395288
0.510233
0.521039
0.411005
0.420519
0.36095
0.371773
0.478591
0.534881
0.399571
0.392979
0.326131
0.319805
0.32675
0.320729
0.355318
0.342519
0.391876
0.386951
0.377743
0.414948
0.423264
0.39261
0.384072
0.367426
0.360421
0.413636
0.405139
0.463689
0.47279
0.701678
0.632632
0.544289
0.550931
0.688753
0.677585
0.48253
0.506241
0.506425
0.449286
0.460043
0.434043
0.64255
0.654157
0.58519
0.571808
0.786654
0.775042
0.752932
0.749661
0.937589
0.943512
0.968297
0.96578
0.966378
0.94875
0.942715
0.961399
0.956515
0.980338
0.975127
0.991121
0.991624
0.984772
0.983998
0.995421
0.995293
1.02445
1.0244
0.988615
0.988493
0.996418
0.988729
0.980743
0.97814
0.988242
0.986851
0.992364
0.992644
0.993511
0.993865
0.992794
0.993864
0.990464
0.992032
0.606946
0.551063
0.558197
0.569218
0.43276
0.425739
0.72572
0.742857
0.673401
0.686253
0.719679
0.620179
0.634878
0.770867
0.788954
0.67949
0.694405
0.766584
0.779993
0.815076
0.804088
0.861776
0.852705
0.897917
0.910054
0.941804
0.948124
0.967524
0.961988
0.994922
0.996233
0.993683
0.980218
0.995384
0.988512
1.00415
0.996964
0.127397
0.118963
0.123222
0.623668
0.725847
0.138663
0.145948
0.129091
0.150189
0.250899
0.204137
0.279285
0.247665
0.559265
0.593359
0.537919
0.61249
0.49752
0.221151
0.226107
0.225417
0.195353
0.191719
0.162542
0.170025
0.166328
0.178398
0.186577
0.177429
0.123089
0.120183
0.111722
0.110899
0.146591
0.150107
0.151536
0.152853
0.172043
0.166394
0.166735
0.165412
0.161549
0.118933
0.119306
0.120591
0.162289
0.196755
0.183976
0.204038
0.200374
0.165609
0.129558
0.267882
0.282022
0.911385
0.700864
0.260426
0.282245
0.188997
0.182287
0.175525
0.21385
0.204147
0.361958
0.407573
0.206711
0.219565
0.357925
0.381393
0.542745
0.796067
1.13394
1.11843
0.572964
0.157565
0.122343
0.254744
0.319966
0.601359
0.60343
0.274655
0.239062
0.260845
0.151199
0.157488
0.136982
0.129283
0.162996
0.497955
0.507416
1.01408
1.00854
0.160161
0.168687
0.266879
0.260675
0.435535
0.463081
0.548019
0.55875
0.712825
0.72502
0.70389
0.716677
0.887136
0.877581
0.973038
0.975784
0.93774
0.945779
0.926183
0.91931
0.913087
0.905724
0.764887
0.779082
0.683071
0.6958
0.615962
0.627016
0.909183
0.909752
1.00944
0.56861
0.51435
0.439114
0.503031
0.526994
1.04101
1.03677
0.828133
0.529197
0.516335
0.593012
0.602033
0.635239
0.624021
0.818551
0.873144
0.848328
0.862408
0.944734
0.941748
0.972562
0.970282
1.03747
1.02215
1.00386
1.00509
0.776326
0.765582
0.952116
0.947427
0.960166
0.956366
0.979089
0.982253
0.987615
0.985502
0.138026
0.140934
0.156111
0.152825
0.55148
0.668738
0.167565
0.172601
0.148183
0.146561
0.150178
0.14831
0.218965
0.221788
0.182854
0.185347
0.180408
0.169489
0.181243
0.17069
0.252332
0.229389
0.314861
0.281127
0.466383
0.535167
1.01658
1.06364
0.962196
1.09135
0.935175
1.10091
0.15843
0.15539
0.130289
0.131824
0.147506
0.148461
0.184152
0.181025
0.180928
0.181649
0.3113
0.31333
0.252981
0.25436
0.343418
0.342489
0.426416
0.427443
0.550362
0.554201
0.537977
0.539025
0.893052
0.897097
0.380352
0.373375
0.357845
0.354174
0.474653
0.475521
1.00075
1.16431
1.02306
1.15263
0.412197
0.378533
0.159802
0.155035
0.247823
0.232385
0.10815
0.107638
0.106413
0.101687
0.104221
0.119419
0.120201
0.341352
0.400311
0.234783
0.214191
0.211743
0.181737
1.03401
1.12986
0.957527
1.14135
0.588886
0.665799
1.00538
0.39393
0.419317
0.130165
0.110507
0.116167
0.136662
0.153433
0.129985
0.0979298
0.332004
0.350248
0.250993
0.248227
0.129156
0.129743
0.166498
0.164823
0.18134
0.178728
0.223262
0.22368
0.288386
0.286039
0.438871
0.446433
1.05066
1.03862
0.956801
0.683833
0.785485
1.0479
1.02649
0.243366
0.247716
0.282149
0.286511
0.214933
0.211332
0.467842
0.539556
0.413934
0.259058
0.262727
0.197915
0.195523
0.391519
0.364732
0.349111
0.528206
0.455712
0.925036
0.92006
1.00039
1.04537
0.93049
0.808128
0.629984
0.477508
0.449426
0.440674
0.214556
0.219513
0.248328
0.243632
0.31922
0.294779
0.300648
0.245554
0.249883
0.208289
0.2235
0.18711
0.189339
0.189304
0.197042
0.185943
0.187288
0.185016
0.24442
0.247333
0.227769
0.226794
0.219908
0.214083
0.211689
0.253845
0.256787
0.271593
0.282428
0.239156
0.242603
0.270819
0.274571
0.272833
0.269281
0.290535
0.303264
0.298636
0.305704
0.296745
0.700075
0.694434
0.68339
0.695086
1.02685
1.0268
0.746418
0.739636
0.404843
0.412597
0.554585
0.559694
0.327276
0.320013
0.32585
0.332654
0.265542
0.257107
0.386113
0.3484
0.427594
0.423938
0.865549
0.990071
0.76174
0.658584
1.0388
1.02314
0.887489
0.73303
0.279461
0.278849
0.32183
0.297532
0.401155
0.449633
0.423575
0.377436
0.254171
0.25437
0.276971
0.290674
0.27
0.265722
0.333384
0.335919
0.33847
0.325681
0.272329
0.279206
0.293329
0.288402
0.329305
0.324013
0.358399
0.36984
0.358277
0.365961
0.39689
0.40608
0.588367
0.654891
0.620438
0.60866
0.404356
0.376457
0.381723
0.408743
0.48659
0.544467
0.423605
0.386021
0.361336
0.368645
0.327391
0.333427
0.325318
0.31975
0.368514
0.363009
0.405591
0.399085
0.37399
0.386668
0.407566
0.399444
0.391059
0.399565
0.437659
0.446168
0.495389
0.482673
0.883979
0.865471
0.820245
0.633336
0.643811
0.666214
0.599639
0.448858
0.441302
0.465504
0.455929
0.482169
0.812824
0.824038
0.59364
0.579681
0.598617
0.74912
0.760751
0.808522
0.816694
0.960665
0.95765
0.837685
0.847798