/*--------------------------------*- C++ -*----------------------------------*\
  =========                 |
  \\      /  F ield         | OpenFOAM: The Open Source CFD Toolbox
   \\    /   O peration     | Website:  https://openfoam.org
    \\  /    A nd           | Version:  7
     \\/     M anipulation  |
\*---------------------------------------------------------------------------*/
FoamFile
{
    version     2.0;
    format      ascii;
    class       volScalarField;
    location    "540";
    object      T;
}
// * * * * * * * * * * * * * * * * * * * * * * * * * * * * * * * * * * * * * //

dimensions      [0 0 0 1 0 0 0];

internalField   nonuniform List<scalar> 
238806
(
0.960522
0.96075
0.951082
0.952365
0.952487
0.958367
0.958452
0.960944
0.961144
0.951041
0.950668
0.955246
0.940581
0.939938
0.93798
0.939874
0.950273
0.949324
0.963997
0.96426
0.944287
0.943115
0.939785
0.93944
0.938509
0.951084
0.950078
0.950172
0.948523
0.948225
0.963807
0.963962
0.944667
0.946277
0.948771
0.950028
0.294596
0.293492
0.951548
0.952736
0.95163
0.94978
0.962274
0.962449
0.963911
0.963772
0.936891
0.939049
0.947842
0.949275
0.955507
0.955905
0.94207
0.941419
0.549434
0.550609
0.9517
0.951764
0.952223
0.953727
0.952782
0.953928
0.952826
0.952958
0.953796
0.963659
0.963648
0.961694
0.961434
0.958846
0.958205
0.944405
0.942726
0.94837
0.946936
0.953224
0.952543
0.9487
0.94995
0.771314
0.771749
0.950421
0.951833
0.960077
0.960297
0.955677
0.95499
0.947658
0.948213
0.949233
0.948443
0.955286
0.95362
0.961822
0.961906
0.953003
0.953839
0.952875
0.951733
0.950878
0.963539
0.961813
0.961526
0.961263
0.961349
0.932089
0.930516
0.946403
0.944963
0.945374
0.943706
0.952686
0.953616
0.955038
0.954663
0.941091
0.942583
0.285983
0.286285
0.285194
0.939752
0.937743
0.959523
0.959228
0.958864
0.958908
0.935572
0.935392
0.945973
0.946647
0.953488
0.947737
0.947512
0.948365
0.95372
0.955311
0.961625
0.961898
0.941686
0.941006
0.941006
0.942365
0.954004
0.96235
0.96082
0.96253
0.962287
0.961209
0.961449
0.959682
0.959275
0.957169
0.956706
0.93291
0.931081
0.943039
0.941607
0.943396
0.941709
0.942996
0.941828
0.952225
0.951575
0.955942
0.955606
0.948472
0.94974
0.79489
0.794494
0.295155
0.294052
0.94936
0.950704
0.897467
0.896888
0.897035
0.959882
0.959594
0.954211
0.953814
0.933262
0.933136
0.946672
0.948625
0.94917
0.949093
0.95983
0.96
0.961884
0.962267
0.962245
0.962434
0.960115
0.959845
0.952783
0.952538
0.953593
0.946809
0.94701
0.95245
0.951724
0.963819
0.963872
0.962436
0.962441
0.962001
0.961597
0.956989
0.95618
0.95873
0.959145
0.914767
0.915418
0.927917
0.925976
0.935816
0.937726
0.941412
0.943056
0.94597
0.947408
0.952748
0.951848
0.954201
0.95508
0.954765
0.95508
0.948697
0.94996
0.849489
0.852864
0.678649
0.68418
0.685964
0.691526
0.479393
0.472567
0.960478
0.961204
0.956592
0.958687
0.933008
0.930891
0.883459
0.881591
0.959105
0.958837
0.955345
0.95571
0.954033
0.953267
0.949327
0.948615
0.940666
0.941315
0.950732
0.951849
0.961221
0.962587
0.961685
0.962381
0.961844
0.962048
0.950114
0.950212
0.959378
0.959737
0.952288
0.952106
0.943821
0.942145
0.955096
0.945971
0.955952
0.957545
0.957183
0.963656
0.963564
0.963094
0.962861
0.961952
0.962195
0.960186
0.960109
0.960366
0.960404
0.959091
0.958867
0.926285
0.92516
0.932721
0.933791
0.926626
0.924723
0.93155
0.929499
0.939908
0.937988
0.941938
0.940048
0.942324
0.940636
0.940811
0.940109
0.949892
0.948736
0.953103
0.952733
0.954177
0.953432
0.941469
0.941711
0.947157
0.947387
0.946845
0.945561
0.80225
0.805983
0.831966
0.835608
0.783966
0.779639
0.767251
0.76683
0.659577
0.660181
0.472385
0.479252
0.284318
0.948319
0.94964
0.937624
0.939577
0.568544
0.56167
0.926691
0.928268
0.896266
0.895238
0.958805
0.958747
0.959311
0.959289
0.954579
0.954973
0.952602
0.952008
0.94444
0.945082
0.943906
0.943868
0.958045
0.958753
0.958357
0.962255
0.961737
0.960742
0.960217
0.962077
0.961891
0.952019
0.952121
0.956737
0.957561
0.957901
0.959299
0.948591
0.948446
0.939211
0.957463
0.956843
0.950247
0.951706
0.954181
0.954285
0.955302
0.953741
0.961116
0.960732
0.963544
0.963773
0.963145
0.963099
0.963007
0.962699
0.962583
0.961996
0.952712
0.953439
0.955372
0.95616
0.960864
0.960733
0.961198
0.96098
0.959244
0.959218
0.958539
0.958116
0.956118
0.955368
0.91739
0.916675
0.93502
0.936399
0.925289
0.923423
0.930382
0.928363
0.934879
0.932758
0.938061
0.935943
0.941212
0.939527
0.941567
0.942219
0.948889
0.947721
0.953732
0.954104
0.950017
0.95089
0.946051
0.9474
0.9458
0.946031
0.948078
0.820357
0.823683
0.849395
0.852756
0.824476
0.820675
0.812414
0.816435
0.684146
0.678577
0.701062
0.70565
0.671201
0.665725
0.36703
0.367465
0.640065
0.645613
0.95547
0.956485
0.955193
0.935861
0.935053
0.935609
0.93471
0.935014
0.936033
0.556259
0.557427
0.906233
0.904538
0.898862
0.89786
0.896204
0.896111
0.925609
0.9258
0.95929
0.95968
0.958458
0.958462
0.95662
0.95673
0.954853
0.950386
0.950187
0.94985
0.943699
0.940982
0.942156
0.942127
0.958602
0.963142
0.961495
0.961455
0.961327
0.961397
0.96131
0.962177
0.962391
0.948009
0.948107
0.951786
0.950861
0.953725
0.952897
0.959571
0.959021
0.951287
0.952176
0.947839
0.948323
0.947632
0.94034
0.944613
0.94523
0.944117
0.943917
0.947554
0.953668
0.959843
0.960091
0.962846
0.963158
0.963423
0.96334
0.963001
0.963216
0.963557
0.963381
0.962632
0.962832
0.954231
0.953556
0.95769
0.956889
0.959367
0.960004
0.959818
0.95985
0.96066
0.960194
0.957862
0.957871
0.958223
0.958448
0.955961
0.956424
0.911495
0.912413
0.924358
0.926698
0.939116
0.940533
0.931936
0.93353
0.928472
0.930247
0.932323
0.934177
0.929171
0.927192
0.933801
0.931692
0.936996
0.934889
0.942777
0.944214
0.940049
0.938374
0.945499
0.945847
0.944034
0.944939
0.947822
0.946649
0.950638
0.951722
0.949729
0.949371
0.955288
0.95541
0.951954
0.951297
0.950202
0.949255
0.947466
0.946114
0.944231
0.942848
0.764921
0.760674
0.805991
0.802266
0.831967
0.835622
0.790593
0.790201
0.779448
0.783794
0.75261
0.74811
0.69249
0.691929
0.702994
0.703163
0.665138
0.670643
0.348206
0.342406
0.292617
0.291493
0.562607
0.563071
0.464594
0.464825
0.950772
0.94953
0.961985
0.960519
0.931964
0.93098
0.947831
0.946204
0.946138
0.947953
0.93684
0.938734
0.581044
0.582139
0.331248
0.330012
0.872549
0.871908
0.888026
0.886258
0.88724
0.88861
0.895526
0.894668
0.895334
0.897019
0.957844
0.957052
0.959237
0.959848
0.960088
0.960363
0.958159
0.958665
0.957237
0.957341
0.954253
0.954958
0.952375
0.951826
0.930737
0.930711
0.946905
0.946006
0.945907
0.944048
0.941805
0.955964
0.955595
0.960399
0.960229
0.962816
0.961217
0.961408
0.961114
0.962035
0.962256
0.946883
0.946981
0.953133
0.952308
0.951092
0.951192
0.958517
0.958954
0.959904
0.960526
0.947813
0.947245
0.946205
0.951473
0.951075
0.950429
0.955675
0.954859
0.957345
0.95611
0.955214
0.950525
0.948992
0.942127
0.95571
0.960558
0.960322
0.963513
0.963265
0.963348
0.963406
0.963149
0.962492
0.955201
0.954461
0.954548
0.955374
0.954556
0.95908
0.959575
0.960205
0.959628
0.96064
0.961386
0.960544
0.960752
0.959305
0.95985
0.956762
0.956989
0.95857
0.958589
0.957586
0.956854
0.923095
0.924167
0.91787
0.916979
0.916519
0.91696
0.92585
0.926877
0.937173
0.938837
0.937798
0.939204
0.933312
0.934926
0.92885
0.927102
0.933521
0.935398
0.932694
0.93061
0.935955
0.933829
0.943894
0.945334
0.942985
0.943623
0.941652
0.940489
0.950816
0.949921
0.950845
0.949714
0.95117
0.950529
0.953448
0.953343
0.952392
0.952689
0.952454
0.950649
0.951975
0.944721
0.944666
0.947545
0.948803
0.943506
0.9449
0.927546
0.929051
0.764816
0.764708
0.794789
0.790883
0.797779
0.798284
0.842549
0.839053
0.820674
0.824491
0.8122
0.81624
0.684065
0.678454
0.731909
0.731593
0.737297
0.737606
0.709463
0.714094
0.710931
0.715627
0.683359
0.688475
0.682003
0.67662
0.510471
0.517023
0.361624
0.367948
0.331367
0.326127
0.293556
0.292446
0.291008
0.28985
0.556182
0.555928
0.28611
0.287522
0.286273
0.947852
0.948429
0.960581
0.958453
0.961022
0.961803
0.961155
0.962309
0.964153
0.935522
0.934714
0.944077
0.945198
0.94533
0.946877
0.953871
0.95308
0.952675
0.953341
0.907941
0.903983
0.502212
0.495693
0.560768
0.561907
0.508085
0.509303
0.395487
0.396019
0.892662
0.894984
0.909503
0.907888
0.89032
0.888487
0.884429
0.882532
0.891557
0.890261
0.896267
0.896363
0.89563
0.897895
0.897099
0.954739
0.955665
0.958738
0.95741
0.959694
0.960449
0.95917
0.958394
0.95877
0.959057
0.956963
0.957319
0.954615
0.954476
0.955749
0.956386
0.950643
0.95137
0.932975
0.933456
0.94824
0.947401
0.945132
0.947659
0.955755
0.955123
0.960666
0.960866
0.959532
0.959303
0.960992
0.960626
0.961992
0.961748
0.949086
0.949184
0.95143
0.950504
0.955291
0.956351
0.958551
0.95811
0.959985
0.960265
0.950471
0.950924
0.949947
0.939185
0.93801
0.93957
0.94781
0.947028
0.944843
0.943854
0.943407
0.941622
0.955701
0.955667
0.950823
0.952144
0.962729
0.963026
0.962875
0.96273
0.963381
0.96311
0.963169
0.963357
0.957001
0.956751
0.956185
0.958426
0.959056
0.960348
0.959787
0.961384
0.961332
0.959956
0.960246
0.957106
0.957113
0.957443
0.95789
0.914171
0.913214
0.913263
0.914049
0.919139
0.918632
0.929308
0.928246
0.934812
0.940386
0.941812
0.934922
0.93356
0.929796
0.931599
0.936585
0.934689
0.939026
0.940937
0.946839
0.947191
0.938813
0.937664
0.943595
0.942689
0.947465
0.94656
0.950915
0.951807
0.95005
0.949415
0.950963
0.951173
0.95617
0.956291
0.956288
0.956168
0.953523
0.95291
0.952978
0.943292
0.943249
0.948098
0.949382
0.944024
0.945424
0.760881
0.760771
0.760577
0.760473
0.786739
0.7867
0.79849
0.798467
0.843868
0.847005
0.839118
0.842622
0.82065
0.824485
0.795243
0.79095
0.788094
0.788246
0.748108
0.748096
0.727156
0.726834
0.751442
0.751764
0.659859
0.654341
0.702605
0.702125
0.696689
0.6918
0.715269
0.719952
0.711646
0.716355
0.662444
0.656862
0.684627
0.689906
0.676097
0.681523
0.618817
0.618394
0.361109
0.360644
0.325639
0.330901
0.294063
0.292957
0.31274
0.318044
0.475821
0.469337
0.555768
0.562326
0.464128
0.464362
0.424743
0.425091
0.957975
0.958162
0.958007
0.950225
0.948718
0.958152
0.956744
0.9585
0.958185
0.884965
0.881534
0.960422
0.959723
0.930027
0.92894
0.933898
0.933012
0.948772
0.947056
0.95004
0.949527
0.949649
0.950541
0.918673
0.921345
0.899612
0.89996
0.377079
0.372529
0.589894
0.590986
0.5551
0.553948
0.563055
0.564213
0.361617
0.362123
0.429365
0.430557
0.928674
0.930265
0.843708
0.844222
0.87478
0.875939
0.92354
0.925263
0.903066
0.904727
0.885257
0.886993
0.892558
0.89123
0.892491
0.893801
0.896784
0.89566
0.894906
0.925051
0.958942
0.95838
0.960801
0.960103
0.957872
0.957621
0.95703
0.957617
0.955232
0.955365
0.952737
0.952752
0.952115
0.953277
0.930731
0.930958
0.929327
0.936216
0.935247
0.95101
0.950107
0.943193
0.942516
0.957802
0.957169
0.957921
0.956879
0.959593
0.959392
0.960895
0.961592
0.9611
0.960966
0.960492
0.950481
0.949628
0.948499
0.948856
0.952662
0.953486
0.958102
0.957537
0.955759
0.954805
0.955885
0.95232
0.95231
0.949004
0.950068
0.944539
0.946233
0.945055
0.950587
0.951914
0.95074
0.949352
0.948499
0.946303
0.945472
0.942599
0.940956
0.954308
0.960264
0.959901
0.962455
0.962513
0.962754
0.963019
0.962865
0.962862
0.958305
0.958501
0.956392
0.956231
0.958399
0.959053
0.959689
0.959949
0.959469
0.959693
0.960875
0.960916
0.95774
0.957511
0.917972
0.916917
0.921706
0.920837
0.915901
0.915066
0.917281
0.917636
0.93161
0.930546
0.931649
0.932809
0.937581
0.935932
0.936433
0.937827
0.936907
0.938829
0.941645
0.941392
0.939246
0.938331
0.945327
0.946232
0.946699
0.945526
0.950553
0.950916
0.948871
0.948236
0.952333
0.952162
0.955411
0.95529
0.954346
0.954469
0.954315
0.953733
0.943195
0.942958
0.941822
0.941799
0.946243
0.94678
0.765028
0.76515
0.782688
0.782645
0.790689
0.794612
0.820576
0.824204
0.802258
0.80289
0.848951
0.849564
0.846074
0.845996
0.835501
0.831889
0.828245
0.828215
0.811926
0.815981
0.792001
0.796243
0.683238
0.677938
0.752592
0.752602
0.757335
0.752741
0.756995
0.757265
0.742962
0.743252
0.736975
0.680542
0.686031
0.691503
0.696881
0.703261
0.696984
0.692088
0.714906
0.719579
0.720318
0.720685
0.708429
0.708639
0.7034
0.698093
0.666578
0.671944
0.683957
0.689127
0.675572
0.681023
0.624448
0.630237
0.649204
0.6495
0.357492
0.351288
0.373323
0.366821
0.336341
0.336793
0.302115
0.298777
0.293075
0.291958
0.304443
0.300454
0.476025
0.469581
0.571585
0.571741
0.513915
0.513673
0.45015
0.449868
0.457797
0.457525
0.378778
0.378816
0.287861
0.287865
0.95642
0.95723
0.95254
0.951791
0.95807
0.957425
0.955035
0.953955
0.959206
0.957778
0.959109
0.943428
0.944048
0.964857
0.965435
0.931933
0.930335
0.930828
0.93665
0.937436
0.945308
0.943474
0.955281
0.954611
0.955964
0.955291
0.951892
0.952068
0.948015
0.904964
0.906246
0.903611
0.907552
0.497861
0.498945
0.356033
0.354654
0.528454
0.527564
0.573721
0.574712
0.548263
0.547101
0.366778
0.367541
0.424027
0.42284
0.918709
0.920674
0.924424
0.926107
0.847292
0.846814
0.853682
0.856241
0.864312
0.86458
0.871383
0.870982
0.906352
0.907939
0.885482
0.883554
0.88058
0.878822
0.893299
0.891947
0.889937
0.891226
0.897348
0.898292
0.956738
0.956399
0.957332
0.956784
0.960187
0.960773
0.959434
0.959748
0.956713
0.956287
0.95595
0.956072
0.954261
0.955007
0.953353
0.954209
0.938578
0.93868
0.937544
0.948691
0.948944
0.950348
0.949515
0.945175
0.944334
0.956715
0.956344
0.960472
0.960033
0.960705
0.961601
0.9463
0.946656
0.949883
0.949526
0.960242
0.960488
0.957687
0.958198
0.959439
0.958508
0.947239
0.945921
0.945816
0.951027
0.950177
0.953265
0.953479
0.948924
0.948739
0.950069
0.95272
0.943842
0.944002
0.914586
0.914992
0.952634
0.953628
0.949814
0.948395
0.949691
0.943453
0.942072
0.94185
0.9453
0.944479
0.962373
0.9613
0.962191
0.96111
0.962754
0.962827
0.963775
0.964506
0.963459
0.96221
0.962226
0.962829
0.962708
0.958985
0.959168
0.956305
0.957082
0.956989
0.957705
0.959575
0.958945
0.960237
0.960014
0.919963
0.918855
0.912196
0.910515
0.919929
0.918975
0.924286
0.923347
0.923532
0.921343
0.921698
0.922393
0.929444
0.92904
0.930876
0.930537
0.936276
0.934644
0.942745
0.943068
0.939846
0.940762
0.940261
0.939103
0.947741
0.948644
0.945519
0.944346
0.951675
0.952041
0.952374
0.952276
0.954469
0.95435
0.955146
0.95456
0.944633
0.9444
0.856207
0.856097
0.778506
0.778507
0.775746
0.771531
0.794912
0.791012
0.806026
0.802314
0.824337
0.820568
0.775295
0.774828
0.821315
0.817421
0.841756
0.841414
0.831335
0.835414
0.839154
0.842656
0.82052
0.824401
0.831934
0.835557
0.828256
0.811575
0.815637
0.807829
0.816813
0.812891
0.796662
0.792478
0.657036
0.651442
0.667571
0.673111
0.715551
0.715569
0.743937
0.744101
0.769113
0.769541
0.766403
0.770872
0.735563
0.735189
0.747684
0.747972
0.728528
0.728797
0.675721
0.670287
0.697367
0.698046
0.718784
0.719193
0.705926
0.701239
0.715987
0.71128
0.723615
0.723866
0.697798
0.697535
0.672366
0.666991
0.679291
0.678694
0.69274
0.687376
0.659002
0.664578
0.552836
0.546299
0.642695
0.648278
0.637718
0.637476
0.648966
0.48957
0.483016
0.322805
0.328542
0.362775
0.369058
0.324551
0.329764
0.324847
0.330129
0.314844
0.319736
0.298293
0.30165
0.29464
0.295084
0.299772
0.30382
0.291379
0.29023
0.640048
0.645628
0.516198
0.51597
0.485581
0.48538
0.499783
0.49301
0.443745
0.44337
0.457262
0.457007
0.392274
0.392553
0.323157
0.323176
0.28506
0.284353
0.924579
0.925157
0.95022
0.951485
0.950226
0.953817
0.953033
0.95477
0.954152
0.954123
0.956611
0.959489
0.931682
0.930344
0.952868
0.951949
0.96437
0.964388
0.958917
0.95969
0.932786
0.933659
0.947205
0.94829
0.941933
0.943679
0.954609
0.954256
0.955438
0.953632
0.953871
0.954204
0.953049
0.943054
0.944215
0.944029
0.882713
0.882451
0.91679
0.919397
0.846165
0.849942
0.606806
0.606682
0.435529
0.442316
0.356987
0.355607
0.514606
0.521094
0.624498
0.623757
0.567906
0.566907
0.569821
0.570965
0.528825
0.530024
0.490241
0.491417
0.332548
0.331289
0.403828
0.40503
0.323265
0.31927
0.929513
0.931093
0.927733
0.929324
0.874035
0.871485
0.864096
0.861049
0.862282
0.860901
0.86275
0.873069
0.873503
0.917025
0.915118
0.897147
0.89551
0.886596
0.88464
0.881798
0.879987
0.881284
0.882851
0.900419
0.899185
0.891975
0.890665
0.893787
0.892558
0.923596
0.923635
0.956997
0.957032
0.95693
0.956197
0.959736
0.959721
0.960151
0.960553
0.956057
0.955597
0.957819
0.957897
0.954045
0.953464
0.927924
0.928175
0.938808
0.948527
0.961016
0.961154
0.94778
0.947424
0.960814
0.957707
0.957086
0.959422
0.957673
0.952436
0.953134
0.952824
0.953887
0.954026
0.95381
0.947521
0.945605
0.945426
0.936965
0.929919
0.930186
0.95338
0.954448
0.949098
0.949789
0.945432
0.946949
0.939934
0.960392
0.959352
0.959719
0.960965
0.960918
0.961295
0.961864
0.96175
0.961134
0.963395
0.963407
0.963907
0.963631
0.961804
0.961778
0.96238
0.962501
0.958235
0.958683
0.957512
0.957759
0.958432
0.957783
0.928446
0.927381
0.923989
0.92278
0.917696
0.915808
0.913967
0.91871
0.919501
0.918038
0.915998
0.917989
0.920072
0.925422
0.927232
0.924908
0.928234
0.947002
0.947636
0.944127
0.944469
0.937307
0.936171
0.948861
0.94976
0.951231
0.951144
0.953907
0.954169
0.845657
0.842898
0.88447
0.884209
0.706448
0.71138
0.826901
0.830561
0.823795
0.820398
0.782871
0.783012
0.806188
0.802498
0.79464
0.790723
0.798544
0.836052
0.838944
0.783485
0.783998
0.778693
0.774363
0.822274
0.82563
0.843126
0.846253
0.8461
0.845546
0.845898
0.845699
0.849487
0.852863
0.846106
0.828247
0.82822
0.831958
0.83559
0.811162
0.815217
0.808344
0.808115
0.778734
0.783131
0.792346
0.796549
0.667251
0.66186
0.673038
0.66751
0.711002
0.706368
0.715576
0.765791
0.765795
0.732246
0.727501
0.753527
0.753134
0.761476
0.761066
0.76158
0.761839
0.7504
0.750759
0.742665
0.747388
0.733386
0.733667
0.728268
0.658512
0.664048
0.686355
0.680816
0.714523
0.7099
0.691563
0.696403
0.710593
0.710258
0.717756
0.722449
0.713583
0.713796
0.7083
0.661968
0.65639
0.682838
0.68793
0.678143
0.686945
0.692372
0.657896
0.663485
0.670099
0.644905
0.644921
0.642386
0.64799
0.643089
0.642932
0.637374
0.643225
0.517436
0.51089
0.405153
0.404373
0.333233
0.334734
0.330168
0.362185
0.368481
0.360415
0.354208
0.341962
0.347767
0.335553
0.335925
0.314492
0.319432
0.29784
0.301221
0.295554
0.296052
0.319218
0.313849
0.300105
0.304128
0.295047
0.292137
0.604921
0.598922
0.584354
0.578058
0.510248
0.509979
0.529711
0.529619
0.55931
0.565352
0.506772
0.506919
0.485931
0.48602
0.448934
0.455614
0.443023
0.442709
0.431349
0.431729
0.392841
0.393068
0.286429
0.286256
0.28507
0.284779
0.284425
0.917707
0.915911
0.963304
0.962793
0.952721
0.95413
0.952772
0.949991
0.953221
0.953924
0.956655
0.955698
0.954436
0.954932
0.884864
0.881462
0.945758
0.945132
0.959943
0.959146
0.963897
0.963878
0.964727
0.96496
0.963451
0.963682
0.960481
0.960121
0.937142
0.939284
0.946212
0.947309
0.941701
0.940922
0.940119
0.955094
0.953463
0.953203
0.958296
0.959497
0.952588
0.952746
0.951239
0.963028
0.962003
0.962144
0.901674
0.902623
0.903761
0.91566
0.911834
0.804545
0.805408
0.746036
0.745709
0.554124
0.554813
0.434672
0.441479
0.434665
0.441447
0.357913
0.356532
0.391217
0.385295
0.521986
0.515499
0.619635
0.620602
0.561076
0.560068
0.55633
0.555263
0.576551
0.577683
0.532157
0.530987
0.515007
0.516221
0.368761
0.369889
0.337846
0.334799
0.328676
0.327465
0.413517
0.414591
0.401226
0.40206
0.35725
0.35191
0.307779
0.306567
0.926178
0.927881
0.925074
0.923407
0.87233
0.874909
0.860392
0.863412
0.87941
0.880532
0.864485
0.863717
0.874059
0.874727
0.903825
0.901481
0.907532
0.908827
0.887766
0.885781
0.887341
0.889141
0.881128
0.879345
0.884365
0.885826
0.899411
0.90049
0.894185
0.892806
0.894469
0.893242
0.891308
0.890018
0.921542
0.920195
0.95784
0.958484
0.958659
0.956244
0.955617
0.959385
0.959322
0.956398
0.927344
0.923752
0.924817
0.960427
0.959826
0.961066
0.957189
0.956811
0.94939
0.949663
0.95539
0.955252
0.955595
0.951216
0.943144
0.927853
0.927921
0.937788
0.935664
0.934845
0.952163
0.951816
0.946097
0.946813
0.958392
0.956697
0.95903
0.96042
0.960196
0.9619
0.962378
0.961849
0.962016
0.961594
0.96117
0.963136
0.963148
0.963525
0.963837
0.961636
0.961756
0.962554
0.962561
0.957988
0.957486
0.921024
0.922039
0.921524
0.919608
0.915029
0.916032
0.922542
0.92024
0.919669
0.919382
0.929499
0.946345
0.945711
0.948131
0.948486
0.941295
0.942204
0.953417
0.95323
0.897049
0.898716
0.916172
0.915736
0.881781
0.881697
0.720666
0.720548
0.720451
0.720372
0.830846
0.834237
0.805985
0.802248
0.803457
0.807222
0.834712
0.837618
0.774409
0.774354
0.78681
0.782765
0.798624
0.798742
0.794701
0.79079
0.835667
0.838533
0.787735
0.788271
0.779181
0.779671
0.804386
0.80811
0.841533
0.844667
0.842337
0.845467
0.845057
0.848344
0.836136
0.832002
0.850186
0.850805
0.846089
0.846022
0.852765
0.849399
0.824455
0.8206
0.807479
0.807073
0.812702
0.816682
0.783377
0.778996
0.792188
0.796411
0.657314
0.651716
0.656247
0.650677
0.672927
0.667425
0.710638
0.710612
0.730006
0.730098
0.761448
0.761442
0.753799
0.749301
0.759519
0.75917
0.757738
0.758138
0.76998
0.770425
0.77333
0.773673
0.730851
0.730481
0.741365
0.741012
0.742358
0.74204
0.752071
0.752364
0.728012
0.727752
0.738196
0.738485
0.681474
0.686601
0.664323
0.658802
0.686642
0.681044
0.717169
0.717523
0.706557
0.701799
0.696486
0.691611
0.692461
0.697354
0.717449
0.722136
0.718638
0.718867
0.662957
0.657369
0.682391
0.687474
0.674474
0.679904
0.686485
0.691985
0.66901
0.669554
0.552957
0.546397
0.619989
0.614145
0.637134
0.636786
0.631713
0.631936
0.643405
0.643676
0.490262
0.483707
0.391339
0.384875
0.304638
0.303712
0.347264
0.353538
0.354837
0.354333
0.349973
0.356007
0.35233
0.358419
0.353781
0.360026
0.341537
0.347328
0.330484
0.325208
0.295743
0.294637
0.297415
0.300824
0.31335
0.318756
0.299455
0.30352
0.290325
0.289149
0.289714
0.28852
0.616577
0.616517
0.598861
0.604857
0.577843
0.58408
0.509745
0.509524
0.549022
0.549142
0.559646
0.565513
0.499812
0.499848
0.506591
0.513375
0.472022
0.478977
0.486114
0.486213
0.45045
0.450769
0.416942
0.417927
0.385746
0.385605
0.333892
0.33992
0.348452
0.348468
0.296527
0.296449
0.286459
0.914063
0.912259
0.928277
0.926147
0.962161
0.961607
0.947724
0.947879
0.955783
0.954347
0.951752
0.95154
0.957622
0.958146
0.958905
0.95843
0.955969
0.956749
0.960891
0.961044
0.918752
0.917638
0.927747
0.928823
0.94619
0.947289
0.952417
0.951137
0.959677
0.960438
0.963442
0.963476
0.963481
0.963658
0.964705
0.965088
0.963371
0.963494
0.964888
0.964737
0.960822
0.960487
0.942337
0.940874
0.941258
0.946229
0.942716
0.9445
0.949688
0.951444
0.954719
0.955771
0.956713
0.957105
0.957929
0.956564
0.945349
0.945743
0.94438
0.957196
0.95662
0.949708
0.950292
0.898356
0.900056
0.90061
0.902152
0.915984
0.91408
0.90296
0.906855
0.887237
0.887516
0.848666
0.851473
0.875992
0.875229
0.560988
0.567865
0.572181
0.579192
0.483934
0.490897
0.479426
0.472416
0.371786
0.376334
0.35846
0.359415
0.379623
0.374256
0.545214
0.551619
0.60874
0.608107
0.647655
0.646731
0.599975
0.601003
0.501364
0.507264
0.565927
0.572754
0.57543
0.574319
0.583242
0.584357
0.514744
0.51359
0.537904
0.539062
0.52192
0.523129
0.459696
0.460886
0.38434
0.385356
0.33346
0.336454
0.430229
0.429166
0.419902
0.421026
0.407273
0.40826
0.394422
0.346423
0.341306
0.308768
0.307569
0.927042
0.925349
0.844763
0.845333
0.88695
0.889353
0.871872
0.87483
0.847012
0.844018
0.883899
0.88507
0.879411
0.880558
0.866328
0.865353
0.867354
0.867945
0.868485
0.868595
0.874722
0.874499
0.904172
0.901802
0.905881
0.907108
0.899202
0.897336
0.89301
0.894576
0.893827
0.892099
0.882576
0.880737
0.879861
0.878148
0.88611
0.884631
0.888688
0.887314
0.898071
0.899275
0.895876
0.894609
0.892813
0.894037
0.916535
0.918731
0.923071
0.957707
0.957704
0.924246
0.922958
0.948723
0.947787
0.95611
0.956819
0.960542
0.940138
0.941876
0.945396
0.950846
0.951819
0.95417
0.920433
0.922769
0.927268
0.929407
0.934864
0.93223
0.951546
0.952193
0.959633
0.958375
0.958903
0.960819
0.961599
0.961395
0.960844
0.960923
0.962112
0.961867
0.962998
0.963132
0.963607
0.963651
0.962147
0.962017
0.925212
0.926223
0.920816
0.921976
0.920959
0.921695
0.945003
0.944369
0.900145
0.898415
0.931813
0.933392
0.90271
0.905277
0.858541
0.861492
0.859518
0.859394
0.695499
0.695256
0.715201
0.715087
0.75202
0.747613
0.775925
0.771609
0.837567
0.790602
0.79076
0.782623
0.782623
0.77435
0.770111
0.836106
0.839078
0.831804
0.832281
0.837343
0.837167
0.770178
0.770119
0.778581
0.778532
0.802386
0.806086
0.813997
0.810459
0.837704
0.840713
0.791934
0.792497
0.782972
0.777289
0.773023
0.808662
0.804916
0.840729
0.843868
0.832801
0.836023
0.838725
0.838173
0.844523
0.847704
0.836086
0.831811
0.84858
0.851894
0.83917
0.842624
0.849518
0.852897
0.781868
0.781478
0.798737
0.802931
0.799787
0.803975
0.800257
0.804418
0.812794
0.816753
0.80488
0.800796
0.791788
0.796047
0.787917
0.679348
0.684928
0.65656
0.65098
0.656379
0.650806
0.696834
0.697809
0.693867
0.70564
0.705567
0.725232
0.725305
0.765946
0.765867
0.735744
0.736014
0.752717
0.752644
0.767256
0.767581
0.755396
0.750856
0.765127
0.764716
0.756934
0.756537
0.765974
0.765547
0.770612
0.770838
0.726133
0.725765
0.746074
0.745718
0.747079
0.746757
0.752644
0.727475
0.73223
0.733106
0.737905
0.660414
0.654866
0.664588
0.659087
0.675875
0.670493
0.700962
0.696504
0.712639
0.712248
0.70887
0.713601
0.701488
0.706225
0.702167
0.706924
0.713112
0.712791
0.703987
0.700813
0.7047
0.673907
0.668469
0.655541
0.66111
0.677649
0.677215
0.68533
0.690802
0.664026
0.65844
0.633225
0.633212
0.620955
0.615252
0.635973
0.641672
0.6261
0.622259
0.626967
0.631339
0.648533
0.648751
0.584167
0.577859
0.56131
0.567911
0.492521
0.499064
0.474591
0.475174
0.39562
0.389317
0.321676
0.325452
0.324991
0.359598
0.366045
0.36024
0.366649
0.34865
0.348102
0.356624
0.350643
0.366553
0.373453
0.353324
0.359563
0.341133
0.346884
0.299852
0.303166
0.29658
0.297139
0.312227
0.317497
0.31304
0.318383
0.308649
0.30892
0.29177
0.29063
0.290657
0.28949
0.29001
0.288825
0.645372
0.645356
0.604989
0.598991
0.633316
0.633416
0.516425
0.516662
0.562002
0.562138
0.54915
0.539692
0.533151
0.492829
0.492778
0.513249
0.506532
0.479114
0.472204
0.45703
0.463479
0.430339
0.430893
0.408489
0.40768
0.385396
0.385171
0.336258
0.336053
0.287554
0.287717
0.36152
0.361568
0.301222
0.301128
0.8701
0.872545
0.95063
0.951772
0.950709
0.932899
0.930868
0.960869
0.961485
0.957744
0.956973
0.957061
0.958615
0.953622
0.954685
0.951399
0.952041
0.951263
0.95112
0.952794
0.958749
0.876718
0.873623
0.924115
0.923855
0.932246
0.93362
0.931117
0.931537
0.955272
0.954181
0.949635
0.948365
0.949429
0.950362
0.953441
0.952175
0.960448
0.959682
0.958855
0.962973
0.962956
0.965045
0.964756
0.963783
0.964142
0.964398
0.962329
0.961418
0.962331
0.962986
0.962596
0.963948
0.964144
0.963212
0.96399
0.930742
0.930587
0.940392
0.93857
0.943185
0.942846
0.944201
0.945895
0.944966
0.948662
0.946738
0.952861
0.954163
0.952067
0.956922
0.944419
0.94167
0.924438
0.926241
0.958262
0.954543
0.9563
0.87503
0.874111
0.89766
0.899355
0.903269
0.904354
0.902037
0.914579
0.915293
0.895873
0.894513
0.899008
0.667063
0.66154
0.851815
0.849018
0.871644
0.872355
0.734644
0.740517
0.630818
0.630268
0.58617
0.586094
0.50148
0.49442
0.491975
0.485006
0.45
0.45689
0.431208
0.424552
0.358809
0.357427
0.38219
0.388106
0.373245
0.378612
0.487896
0.481296
0.532327
0.525851
0.59787
0.591941
0.60927
0.630826
0.630057
0.614871
0.615791
0.621565
0.596503
0.597572
0.556259
0.555313
0.559084
0.568685
0.56756
0.525234
0.524051
0.513791
0.512574
0.484451
0.483262
0.412279
0.413396
0.341494
0.342758
0.360651
0.365833
0.337361
0.33869
0.326137
0.324937
0.468947
0.470034
0.412394
0.418751
0.400179
0.406186
0.316355
0.315202
0.3183
0.322326
0.919044
0.917131
0.922573
0.924411
0.860339
0.860256
0.848394
0.847823
0.890693
0.892983
0.891706
0.894013
0.852638
0.849374
0.847739
0.844718
0.886062
0.887252
0.881682
0.882839
0.870358
0.871355
0.866214
0.867003
0.862076
0.861775
0.866407
0.866574
0.872491
0.872532
0.876234
0.87623
0.929705
0.931324
0.924143
0.922433
0.895125
0.892976
0.912627
0.911083
0.895998
0.897831
0.891877
0.893408
0.890886
0.892579
0.889294
0.8877
0.884491
0.882841
0.880156
0.878422
0.889313
0.887915
0.885895
0.884427
0.902736
0.901607
0.8979
0.896575
0.893843
0.895087
0.921506
0.921958
0.921203
0.920549
0.924031
0.923229
0.922604
0.921385
0.939017
0.938078
0.948661
0.949597
0.959037
0.95889
0.959496
0.960545
0.961061
0.943432
0.941179
0.946909
0.946146
0.950005
0.95102
0.925681
0.926156
0.925311
0.924675
0.933692
0.931457
0.932702
0.957562
0.959835
0.962411
0.962619
0.962136
0.962166
0.961483
0.963463
0.963273
0.92302
0.923968
0.901682
0.899868
0.930501
0.932052
0.902078
0.904624
0.849373
0.852471
0.878686
0.878754
0.725519
0.725401
0.712295
0.707527
0.700453
0.700231
0.71534
0.74775
0.747676
0.751943
0.751868
0.776149
0.771825
0.831094
0.827335
0.842733
0.84594
0.786683
0.786682
0.778531
0.774884
0.770636
0.821558
0.824962
0.828947
0.827139
0.82972
0.83417
0.834373
0.774495
0.770269
0.778919
0.778773
0.778661
0.81692
0.816943
0.817456
0.827341
0.830473
0.806055
0.806597
0.787198
0.79137
0.781498
0.79775
0.793778
0.817295
0.813647
0.838372
0.837562
0.837752
0.834774
0.840004
0.839192
0.838459
0.835977
0.838548
0.824182
0.820232
0.842429
0.839511
0.841412
0.848022
0.85139
0.842656
0.839168
0.791265
0.791543
0.803332
0.799136
0.804218
0.800042
0.812579
0.816579
0.808778
0.800703
0.804806
0.787713
0.787483
0.697252
0.701947
0.674768
0.669274
0.667741
0.662295
0.661718
0.667094
0.672767
0.667312
0.692379
0.687517
0.700523
0.700407
0.710728
0.705823
0.753207
0.753361
0.757112
0.757186
0.761465
0.765815
0.721145
0.721018
0.739127
0.739049
0.766115
0.766276
0.766471
0.766699
0.739145
0.739519
0.760267
0.760662
0.75504
0.754701
0.767931
0.768305
0.762304
0.762714
0.752351
0.751965
0.76845
0.772964
0.775054
0.775263
0.727174
0.726847
0.749269
0.749652
0.745348
0.750029
0.746421
0.751106
0.732535
0.732824
0.676837
0.671569
0.660123
0.654593
0.653259
0.652947
0.669558
0.675049
0.704203
0.704991
0.691732
0.692329
0.707677
0.707242
0.717923
0.718352
0.698956
0.694153
0.707324
0.702591
0.717096
0.721786
0.713328
0.717999
0.71343
0.718446
0.708811
0.708635
0.667941
0.673353
0.661519
0.655946
0.680487
0.675031
0.597271
0.603515
0.611128
0.60616
0.609771
0.630713
0.625005
0.647336
0.64767
0.624985
0.625281
0.624884
0.637399
0.63736
0.504779
0.498234
0.552389