/*--------------------------------*- C++ -*----------------------------------*\
  =========                 |
  \\      /  F ield         | OpenFOAM: The Open Source CFD Toolbox
   \\    /   O peration     | Website:  https://openfoam.org
    \\  /    A nd           | Version:  7
     \\/     M anipulation  |
\*---------------------------------------------------------------------------*/
FoamFile
{
    version     2.0;
    format      ascii;
    class       volScalarField;
    location    "120";
    object      T;
}
// * * * * * * * * * * * * * * * * * * * * * * * * * * * * * * * * * * * * * //

dimensions      [0 0 0 1 0 0 0];

internalField   nonuniform List<scalar> 
238806
(
8.25899e-12
8.00894e-12
6.76555e-12
6.64464e-12
6.92441e-12
8.30822e-12
8.34515e-12
8.21773e-12
8.47825e-12
6.52712e-12
6.4257e-12
7.2207e-12
2.93876e-12
2.84934e-12
4.71527e-12
4.96138e-12
6.36718e-12
6.23653e-12
1.0859e-11
1.09201e-11
3.68756e-12
3.53257e-12
4.94218e-12
4.87433e-12
4.72901e-12
6.57671e-12
6.40767e-12
6.36976e-12
4.71221e-12
4.77744e-12
1.06589e-11
1.09101e-11
3.98117e-12
4.22928e-12
4.30533e-12
4.55945e-12
-2.01723e-12
-1.99903e-12
6.67642e-12
6.80396e-12
6.60836e-12
6.35759e-12
1.10675e-11
1.12768e-11
1.06417e-11
1.0574e-11
2.9452e-12
3.22564e-12
4.48091e-12
4.7341e-12
5.99547e-12
6.09021e-12
3.15818e-12
3.06493e-12
-4.57496e-12
-4.53874e-12
6.64146e-12
6.79509e-12
6.78977e-12
7.13614e-12
6.97607e-12
6.90489e-12
6.83453e-12
6.76304e-12
6.96042e-12
1.04077e-11
1.03704e-11
8.74469e-12
8.5375e-12
7.24954e-12
7.00027e-12
3.88945e-12
3.652e-12
4.54112e-12
4.30411e-12
5.3713e-12
5.24397e-12
4.3009e-12
4.55246e-12
-6.2655e-12
-6.27344e-12
3.94045e-12
4.17163e-12
9.28136e-12
9.39668e-12
7.46714e-12
7.25431e-12
5.95168e-12
6.07634e-12
6.20688e-12
6.08678e-12
7.3391e-12
7.13597e-12
1.04635e-11
1.03144e-11
6.61565e-12
6.81563e-12
5.63828e-12
5.37641e-12
5.14484e-12
1.02931e-11
8.81626e-12
8.66414e-12
8.42388e-12
8.46964e-12
2.11635e-12
1.96234e-12
4.15114e-12
3.93665e-12
4.06227e-12
3.81821e-12
5.3747e-12
5.54055e-12
5.81985e-12
5.73378e-12
3.01216e-12
3.23418e-12
-2.06056e-12
-2.06448e-12
-2.04725e-12
2.51851e-12
2.27065e-12
8.92418e-12
8.81577e-12
8.522e-12
8.5605e-12
4.49123e-12
4.46763e-12
5.70792e-12
5.77843e-12
6.96644e-12
6.03507e-12
5.93341e-12
6.06833e-12
7.31738e-12
7.53409e-12
1.03746e-11
1.06013e-11
4.93164e-12
4.75689e-12
4.83292e-12
4.94967e-12
5.90894e-12
9.53813e-12
9.31028e-12
9.35409e-12
9.19366e-12
8.3983e-12
8.54523e-12
7.59775e-12
7.43736e-12
6.5283e-12
6.3974e-12
2.28369e-12
2.09656e-12
3.56134e-12
3.37478e-12
3.7136e-12
3.48388e-12
3.47686e-12
3.32941e-12
5.1242e-12
5.00652e-12
6.08553e-12
6.00053e-12
4.24211e-12
4.49712e-12
-5.77579e-12
-5.76973e-12
-2.01376e-12
-1.99556e-12
3.74598e-12
3.95525e-12
1.69914e-12
1.6514e-12
1.67972e-12
9.15557e-12
9.0427e-12
6.94843e-12
6.87119e-12
4.21787e-12
4.21906e-12
5.79962e-12
6.10546e-12
6.25237e-12
6.2059e-12
9.37804e-12
9.31055e-12
1.06831e-11
1.09073e-11
1.10202e-11
1.12323e-11
9.20759e-12
9.05316e-12
5.5372e-12
5.76362e-12
5.80282e-12
4.39106e-12
4.42744e-12
5.59697e-12
5.50053e-12
1.0612e-11
1.07517e-11
9.25717e-12
9.0401e-12
9.00393e-12
8.79624e-12
6.63747e-12
6.36662e-12
7.17958e-12
7.33136e-12
7.01014e-13
7.63673e-13
1.76392e-12
1.583e-12
2.70397e-12
2.92671e-12
3.49231e-12
3.73635e-12
4.12184e-12
4.34669e-12
5.3237e-12
5.15624e-12
5.70527e-12
5.86613e-12
5.74135e-12
5.81566e-12
4.28607e-12
4.54148e-12
-3.91623e-12
-3.76032e-12
-6.73249e-12
-6.70087e-12
-7.20643e-12
-7.19795e-12
-5.26206e-12
-5.15527e-12
6.30935e-12
6.60096e-12
5.52911e-12
5.88306e-12
1.7791e-12
1.56631e-12
5.36096e-13
4.20278e-13
8.69991e-12
8.60318e-12
7.28746e-12
7.36973e-12
6.9685e-12
6.76767e-12
6.14967e-12
5.98507e-12
4.96948e-12
5.04124e-12
6.51214e-12
6.69523e-12
1.03658e-11
1.06144e-11
1.05287e-11
1.07619e-11
1.05764e-11
1.0802e-11
6.01486e-12
6.03675e-12
8.86439e-12
9.07329e-12
6.67587e-12
6.56846e-12
3.92259e-12
3.67216e-12
6.11267e-12
4.28205e-12
6.76698e-12
6.62271e-12
6.95766e-12
1.04627e-11
1.03165e-11
9.88505e-12
9.71181e-12
8.93049e-12
9.0862e-12
7.86504e-12
8.15649e-12
7.87531e-12
7.89493e-12
7.25738e-12
7.17704e-12
1.653e-12
1.52888e-12
2.41983e-12
2.55893e-12
1.62028e-12
1.4479e-12
2.19263e-12
1.98415e-12
3.24903e-12
3.01003e-12
3.57256e-12
3.32352e-12
3.53595e-12
3.31478e-12
3.03869e-12
2.95506e-12
4.75668e-12
4.55987e-12
5.2905e-12
5.21958e-12
5.61872e-12
5.47829e-12
3.0694e-12
3.10983e-12
3.99497e-12
4.03792e-12
3.96369e-12
3.73299e-12
-4.91459e-12
-4.79351e-12
-4.65167e-12
-4.5086e-12
-6.1513e-12
-6.24697e-12
-6.36337e-12
-6.35516e-12
-7.165e-12
-7.15955e-12
-5.15073e-12
-5.25769e-12
-2.03349e-12
3.55977e-12
3.74379e-12
2.24815e-12
2.47968e-12
-3.9477e-12
-3.84838e-12
3.09516e-12
3.24347e-12
1.56004e-12
1.491e-12
8.52087e-12
8.34619e-12
8.72506e-12
8.76744e-12
7.07617e-12
7.15631e-12
6.63677e-12
6.47541e-12
5.55758e-12
5.58386e-12
5.48869e-12
5.41541e-12
8.43708e-12
8.73663e-12
1.01843e-11
1.04815e-11
9.90993e-12
9.71463e-12
9.72367e-12
1.08516e-11
1.06283e-11
6.39546e-12
6.41928e-12
7.90099e-12
8.11399e-12
8.76135e-12
8.96113e-12
6.19988e-12
5.98616e-12
4.53568e-12
6.95333e-12
6.6721e-12
5.02921e-12
5.30466e-12
5.82042e-12
6.02896e-12
6.0092e-12
5.8289e-12
8.46675e-12
8.25993e-12
1.02975e-11
1.04538e-11
9.87563e-12
9.82225e-12
9.76086e-12
9.53083e-12
9.50568e-12
9.26959e-12
5.41318e-12
5.65203e-12
6.16477e-12
6.4193e-12
8.17245e-12
8.11816e-12
8.37783e-12
8.27236e-12
7.31539e-12
7.30395e-12
7.06363e-12
6.9191e-12
6.23648e-12
5.98772e-12
9.15941e-13
8.45292e-13
2.44609e-12
2.59256e-12
1.47629e-12
1.31211e-12
2.04991e-12
1.85081e-12
2.62247e-12
2.38711e-12
3.06732e-12
2.80772e-12
3.35748e-12
3.14504e-12
3.16927e-12
3.24765e-12
4.54219e-12
4.35393e-12
5.4755e-12
5.55356e-12
4.57536e-12
4.8345e-12
3.81575e-12
4.05519e-12
3.75479e-12
3.79656e-12
4.19786e-12
-4.01969e-12
-3.88506e-12
-3.90473e-12
-3.74955e-12
-4.97562e-12
-5.10905e-12
-5.30923e-12
-5.1778e-12
-6.72785e-12
-6.7584e-12
-7.10832e-12
-7.08304e-12
-7.18941e-12
-7.17688e-12
-3.33749e-12
-3.33858e-12
-6.61662e-12
-6.61149e-12
5.09593e-12
5.24033e-12
5.02974e-12
2.00778e-12
1.91101e-12
2.06357e-12
1.94296e-12
1.99995e-12
2.08308e-12
-4.6816e-12
-4.64494e-12
1.88442e-12
1.76388e-12
1.69114e-12
1.62406e-12
1.63111e-12
1.65683e-12
3.52951e-12
3.55323e-12
8.85043e-12
8.99649e-12
8.39028e-12
8.28763e-12
7.64305e-12
7.66908e-12
7.17795e-12
6.29217e-12
6.28321e-12
6.12511e-12
5.35259e-12
5.1269e-12
5.16052e-12
5.21948e-12
9.81977e-12
9.85526e-12
1.00228e-11
1.02383e-11
1.0093e-11
1.0252e-11
1.01402e-11
1.09366e-11
1.1151e-11
5.64608e-12
5.66701e-12
6.34931e-12
6.15974e-12
6.78784e-12
6.59007e-12
8.91829e-12
8.7068e-12
6.45027e-12
6.67324e-12
5.75462e-12
4.69158e-12
4.54953e-12
3.41352e-12
4.12679e-12
4.15384e-12
4.03822e-12
3.94548e-12
4.56104e-12
5.79562e-12
7.73306e-12
7.98902e-12
9.26419e-12
9.0539e-12
1.01757e-11
1.00233e-11
9.73419e-12
1.00126e-11
1.0414e-11
1.0228e-11
9.45382e-12
9.61999e-12
5.83153e-12
5.59474e-12
6.82883e-12
6.54263e-12
7.42181e-12
7.71723e-12
7.58942e-12
7.60465e-12
8.13e-12
7.95127e-12
6.73651e-12
6.74197e-12
6.9026e-12
6.97747e-12
6.14033e-12
6.26318e-12
4.02698e-13
4.83859e-13
1.59421e-12
1.80872e-12
3.0005e-12
3.17012e-12
2.12986e-12
2.29138e-12
1.7926e-12
1.96304e-12
2.24832e-12
2.44423e-12
1.90719e-12
1.71729e-12
2.47836e-12
2.25144e-12
2.91592e-12
2.66584e-12
3.56235e-12
3.75789e-12
3.17892e-12
2.97539e-12
3.75143e-12
3.79379e-12
3.61101e-12
3.73033e-12
4.32761e-12
4.14809e-12
4.97449e-12
5.188e-12
4.52143e-12
4.46763e-12
5.86907e-12
5.89869e-12
5.07147e-12
4.87443e-12
4.66558e-12
4.43412e-12
4.05785e-12
3.81681e-12
3.50644e-12
3.28391e-12
-4.64321e-12
-4.75838e-12
-4.83948e-12
-4.95928e-12
-4.63563e-12
-4.49204e-12
-5.88822e-12
-5.88197e-12
-6.24126e-12
-6.14486e-12
-6.05225e-12
-6.13666e-12
-7.10758e-12
-7.09395e-12
-7.16417e-12
-7.1637e-12
-7.182e-12
-7.19421e-12
-2.89943e-12
-2.79892e-12
-2.0291e-12
-2.01058e-12
-6.25458e-12
-6.26953e-12
-5.01947e-12
-5.02545e-12
4.15034e-12
3.87454e-12
6.61122e-12
6.52578e-12
1.61684e-12
1.521e-12
3.52457e-12
3.29579e-12
3.304e-12
3.58196e-12
2.16822e-12
2.39108e-12
-5.16507e-12
-5.12697e-12
-1.66102e-12
-1.64286e-12
-9.78439e-14
-1.06882e-13
7.96803e-13
6.84749e-13
1.05071e-12
1.14008e-12
1.58202e-12
1.53387e-12
1.59309e-12
1.71745e-12
8.30793e-12
8.13451e-12
8.90373e-12
9.14417e-12
9.28349e-12
9.50867e-12
8.24863e-12
8.46678e-12
7.8656e-12
7.89606e-12
7.09511e-12
7.30485e-12
6.71149e-12
6.49975e-12
3.96485e-12
3.98206e-12
5.78138e-12
5.62749e-12
5.71487e-12
5.4145e-12
5.10719e-12
7.85224e-12
7.80749e-12
9.52499e-12
9.38824e-12
1.01728e-11
9.95421e-12
1.0002e-11
9.89783e-12
1.08215e-11
1.10392e-11
5.46611e-12
5.48679e-12
6.66156e-12
6.47066e-12
6.20375e-12
6.22646e-12
8.47077e-12
8.66308e-12
9.13619e-12
9.36132e-12
5.8687e-12
5.66923e-12
5.68546e-12
6.48285e-12
5.21296e-12
5.05386e-12
6.25229e-12
6.44947e-12
6.58055e-12
6.41404e-12
6.17516e-12
5.11951e-12
4.84612e-12
3.70027e-12
6.28172e-12
8.21008e-12
7.96483e-12
1.01496e-11
9.98116e-12
1.00975e-11
1.01457e-11
1.00109e-11
9.77421e-12
5.97135e-12
5.91107e-12
5.73878e-12
6.09497e-12
5.90925e-12
7.44898e-12
7.71171e-12
7.81784e-12
7.52191e-12
8.01933e-12
8.33815e-12
7.99953e-12
8.09877e-12
7.73335e-12
7.49347e-12
6.35641e-12
6.42077e-12
7.01961e-12
7.02781e-12
6.74585e-12
6.48972e-12
1.34415e-12
1.45863e-12
9.23574e-13
8.36845e-13
8.73124e-13
9.18264e-13
1.68579e-12
1.80159e-12
2.80559e-12
3.00022e-12
2.81459e-12
2.97616e-12
2.29805e-12
2.46739e-12
1.80319e-12
1.64058e-12
2.40018e-12
2.60501e-12
2.33545e-12
2.11754e-12
2.76818e-12
2.52526e-12
3.7499e-12
3.95467e-12
3.3862e-12
3.46477e-12
3.26801e-12
3.12775e-12
4.86924e-12
4.71412e-12
4.97142e-12
4.76591e-12
4.87811e-12
4.76852e-12
5.35447e-12
5.33573e-12
5.02922e-12
5.23638e-12
5.19383e-12
4.68781e-12
4.96935e-12
3.58271e-12
3.58348e-12
4.0798e-12
4.32379e-12
3.38137e-12
3.60905e-12
1.62962e-12
1.79555e-12
-4.62966e-12
-4.61593e-12
-5.27047e-12
-5.38163e-12
-5.64383e-12
-5.64831e-12
-4.26813e-12
-4.41476e-12
-5.0949e-12
-4.96061e-12
-5.29993e-12
-5.16783e-12
-6.75545e-12
-6.78459e-12
-6.77105e-12
-6.75464e-12
-6.90019e-12
-6.90307e-12
-7.03449e-12
-6.99957e-12
-7.07054e-12
-7.03661e-12
-7.20531e-12
-7.19687e-12
-7.20008e-12
-7.19714e-12
-5.71449e-12
-5.8149e-12
-3.22883e-12
-3.34001e-12
-2.60906e-12
-2.51963e-12
-2.02356e-12
-2.00525e-12
-2.03799e-12
-2.0189e-12
-6.20589e-12
-6.19294e-12
-2.06086e-12
-2.08327e-12
-2.06264e-12
3.60152e-12
3.69999e-12
6.59027e-12
6.34413e-12
6.22902e-12
6.78709e-12
6.49328e-12
7.67593e-12
8.02142e-12
1.9948e-12
1.90353e-12
2.93455e-12
3.06713e-12
3.15473e-12
3.36202e-12
4.72481e-12
4.58458e-12
4.44752e-12
4.59624e-12
1.46403e-13
-7.35958e-14
-4.81885e-12
-4.70549e-12
-4.8604e-12
-4.82357e-12
-3.91251e-12
-3.87945e-12
-2.85882e-12
-2.83219e-12
8.28198e-13
9.81003e-13
2.12202e-12
2.00379e-12
8.93743e-13
7.76237e-13
5.69846e-13
4.51775e-13
1.25194e-12
1.16762e-12
1.61168e-12
1.58711e-12
1.56453e-12
1.691e-12
1.63703e-12
7.33788e-12
7.5352e-12
8.74397e-12
8.56178e-12
8.90621e-12
9.0911e-12
8.95611e-12
8.52547e-12
8.61466e-12
8.67887e-12
7.82623e-12
7.9411e-12
7.02291e-12
6.99903e-12
7.51471e-12
7.68185e-12
6.33939e-12
6.53339e-12
4.17712e-12
4.21678e-12
5.97854e-12
5.81775e-12
5.57273e-12
5.87393e-12
7.61245e-12
7.52612e-12
9.63171e-12
9.77024e-12
9.61761e-12
9.57298e-12
9.95302e-12
9.73296e-12
1.07169e-11
1.04897e-11
5.8289e-12
5.8503e-12
6.28185e-12
6.09516e-12
7.49701e-12
7.71539e-12
8.50253e-12
8.30434e-12
9.28976e-12
9.51214e-12
6.17973e-12
6.39326e-12
6.37216e-12
3.27226e-12
3.08814e-12
3.38797e-12
4.52898e-12
4.38621e-12
4.04411e-12
3.89819e-12
3.87975e-12
3.59189e-12
6.36167e-12
6.68701e-12
5.28742e-12
5.53426e-12
9.84757e-12
1.01756e-11
9.61072e-12
9.45188e-12
9.84664e-12
9.66073e-12
9.97074e-12
1.01502e-11
6.43005e-12
6.36618e-12
6.24502e-12
7.11072e-12
7.3904e-12
7.8764e-12
7.58257e-12
8.47684e-12
8.44619e-12
7.69494e-12
7.86433e-12
6.45533e-12
6.45902e-12
6.65774e-12
6.79578e-12
6.08277e-13
5.21447e-13
5.60791e-13
6.33242e-13
1.09463e-12
1.0428e-12
2.04291e-12
1.9179e-12
2.69299e-12
3.18733e-12
3.36527e-12
2.40278e-12
2.26363e-12
1.9446e-12
2.12323e-12
2.76593e-12
2.55212e-12
3.16501e-12
3.41043e-12
3.98497e-12
4.03065e-12
2.85668e-12
2.72977e-12
3.50936e-12
3.39572e-12
4.18072e-12
4.04828e-12
4.93598e-12
5.0982e-12
4.63369e-12
4.53117e-12
4.76123e-12
4.80428e-12
6.15085e-12
6.17884e-12
6.17612e-12
6.14451e-12
5.40626e-12
5.28366e-12
5.2555e-12
3.35532e-12
3.35875e-12
4.17334e-12
4.42509e-12
3.46047e-12
3.692e-12
-4.78394e-12
-4.77142e-12
-4.7451e-12
-4.73179e-12
-5.41569e-12
-5.3755e-12
-5.07663e-12
-5.03314e-12
-3.9506e-12
-3.81148e-12
-4.397e-12
-4.24991e-12
-5.08108e-12
-4.94594e-12
-5.78225e-12
-5.89464e-12
-6.04411e-12
-6.05133e-12
-6.20545e-12
-6.17155e-12
-6.82591e-12
-6.80991e-12
-6.71733e-12
-6.72086e-12
-7.17249e-12
-7.16088e-12
-7.03734e-12
-7.02334e-12
-7.14726e-12
-7.16496e-12
-7.0283e-12
-6.98977e-12
-7.08423e-12
-7.05069e-12
-7.19395e-12
-7.1788e-12
-7.20772e-12
-7.19934e-12
-7.2016e-12
-7.20416e-12
-6.98334e-12
-6.98262e-12
-3.22702e-12
-3.2256e-12
-2.52473e-12
-2.61449e-12
-2.02049e-12
-2.00226e-12
-2.40784e-12
-2.49742e-12
-5.12313e-12
-5.02938e-12
-6.18166e-12
-6.24192e-12
-5.00684e-12
-5.01326e-12
-4.36533e-12
-4.37001e-12
5.50159e-12
5.74102e-12
5.73711e-12
4.0479e-12
3.77654e-12
5.5986e-12
5.34766e-12
5.76766e-12
6.14247e-12
-1.88592e-12
-2.07382e-12
6.36927e-12
6.09132e-12
1.43165e-12
1.33743e-12
1.80835e-12
1.71188e-12
3.69395e-12
3.43935e-12
4.02153e-12
3.85902e-12
3.94783e-12
4.04843e-12
7.43364e-13
9.12508e-13
-3.13332e-13
-2.91425e-13
-1.34069e-12
-1.29106e-12
-5.18429e-12
-5.14548e-12
-4.71813e-12
-4.75452e-12
-4.78657e-12
-4.74947e-12
-2.00506e-12
-1.97931e-12
-3.54478e-12
-3.52503e-12
3.30645e-12
3.45818e-12
-2.79163e-12
-2.71645e-12
-1.34261e-13
-8.46943e-14
3.05788e-12
3.20569e-12
1.68094e-12
1.7979e-12
6.48634e-13
7.58201e-13
1.24252e-12
1.15609e-12
1.39492e-12
1.47707e-12
1.55429e-12
1.48108e-12
1.50779e-12
3.48218e-12
8.67923e-12
8.4681e-12
9.51528e-12
9.27459e-12
8.16382e-12
8.05012e-12
7.80702e-12
8.02817e-12
7.20865e-12
7.23266e-12
6.73228e-12
6.92917e-12
6.65683e-12
6.83107e-12
3.98782e-12
3.98596e-12
3.83154e-12
4.49546e-12
4.41132e-12
6.51997e-12
6.34383e-12
5.29898e-12
5.19245e-12
8.06983e-12
8.21596e-12
8.16757e-12
8.04583e-12
9.1185e-12
9.02729e-12
9.73411e-12
1.03977e-11
1.01661e-11
9.73992e-12
9.64463e-12
6.16273e-12
5.98959e-12
5.72896e-12
5.78827e-12
6.54137e-12
6.73592e-12
8.31886e-12
8.12038e-12
7.24353e-12
7.32371e-12
7.49677e-12
6.62066e-12
6.81767e-12
6.05041e-12
6.27767e-12
5.28516e-12
5.49991e-12
5.45964e-12
5.12163e-12
5.28346e-12
5.03053e-12
4.7803e-12
4.64505e-12
4.28147e-12
4.13712e-12
3.76332e-12
3.48859e-12
6.06049e-12
8.45739e-12
8.40836e-12
9.26051e-12
9.31666e-12
9.73027e-12
9.88966e-12
9.6221e-12
9.61182e-12
6.93721e-12
7.0008e-12
6.26432e-12
6.11976e-12
7.20968e-12
7.47515e-12
7.66857e-12
7.93551e-12
7.45153e-12
7.538e-12
8.16126e-12
8.18611e-12
6.69833e-12
6.62874e-12
8.97549e-13
7.96614e-13
1.27565e-12
1.18441e-12
7.70287e-13
6.91272e-13
9.55371e-13
9.89655e-13
2.28331e-12
2.1519e-12
2.32456e-12
2.45913e-12
2.82192e-12
2.63599e-12
2.62975e-12
2.78364e-12
2.85651e-12
3.08777e-12
3.1309e-12
3.10105e-12
2.86357e-12
2.76328e-12
3.82863e-12
3.95428e-12
4.11325e-12
3.94216e-12
4.71519e-12
4.77403e-12
4.39192e-12
4.2958e-12
5.07366e-12
5.03539e-12
5.90142e-12
5.87565e-12
5.59302e-12
5.62257e-12
5.64095e-12
5.50903e-12
3.33326e-12
3.29285e-12
3.13372e-12
3.14092e-12
3.84158e-12
3.92929e-12
-4.65643e-12
-4.66899e-12
-5.52367e-12
-5.48447e-12
-5.26383e-12
-5.14966e-12
-4.27992e-12
-4.1419e-12
-5.38057e-12
-5.38703e-12
-3.78516e-12
-3.77676e-12
-4.10017e-12
-4.11883e-12
-4.55879e-12
-4.70033e-12
-4.82349e-12
-4.83931e-12
-5.29196e-12
-5.15939e-12
-5.92353e-12
-5.8129e-12
-6.8125e-12
-6.83709e-12
-6.08819e-12
-6.12308e-12
-6.51169e-12
-6.58779e-12
-6.65713e-12
-6.65982e-12
-6.85168e-12
-6.8531e-12
-6.89679e-12
-7.1154e-12
-7.10002e-12
-7.07942e-12
-7.05371e-12
-7.04905e-12
-7.1541e-12
-7.17153e-12
-7.01925e-12
-6.98051e-12
-6.99827e-12
-7.00594e-12
-7.14093e-12
-7.13993e-12
-7.16202e-12
-7.17916e-12
-7.19927e-12
-7.20366e-12
-7.207e-12
-7.19866e-12
-7.20514e-12
-7.20733e-12
-7.00749e-12
-7.03888e-12
-7.15278e-12
-7.15562e-12
-2.75489e-12
-2.6513e-12
-3.3397e-12
-3.22512e-12
-2.70778e-12
-2.70214e-12
-2.15389e-12
-2.09847e-12
-2.02643e-12
-2.00802e-12
-2.23509e-12
-2.16862e-12
-5.12994e-12
-5.03661e-12
-6.42422e-12
-6.43655e-12
-5.73911e-12
-5.74217e-12
-4.78675e-12
-4.78034e-12
-4.91352e-12
-4.90728e-12
-3.57379e-12
-3.57148e-12
-2.09073e-12
-2.08974e-12
5.2848e-12
5.52795e-12
4.42665e-12
4.30589e-12
5.79742e-12
5.57969e-12
5.00287e-12
4.79622e-12
6.21887e-12
6.07336e-12
5.8605e-12
2.65914e-12
2.72864e-12
8.62254e-12
8.94606e-12
1.63571e-12
1.46837e-12
1.5426e-12
2.10329e-12
2.19886e-12
3.19008e-12
2.9561e-12
4.87864e-12
4.86342e-12
4.99807e-12
5.07466e-12
4.26213e-12
4.29888e-12
3.63479e-12
-2.68334e-13
-1.71405e-13
-9.71863e-14
1.21409e-13
-3.29285e-12
-3.26215e-12
-1.3032e-12
-1.28742e-12
-5.68962e-12
-5.70252e-12
-5.42357e-12
-5.38768e-12
-4.61102e-12
-4.64693e-12
-2.07805e-12
-2.05376e-12
-3.41289e-12
-3.43225e-12
2.45246e-12
2.61457e-12
2.90403e-12
3.0551e-12
-2.56488e-12
-2.63943e-12
-9.74408e-13
-8.31916e-13
-3.8718e-13
-3.40979e-13
-1.07761e-13
-1.00241e-13
1.91369e-12
2.02841e-12
6.10158e-13
4.89697e-13
4.79587e-13
3.71154e-13
1.25654e-12
1.16828e-12
1.22713e-12
1.31182e-12
1.62444e-12
1.68633e-12
7.91943e-12
7.72117e-12
8.10959e-12
7.93383e-12
9.23862e-12
9.48175e-12
8.88371e-12
9.0878e-12
7.72076e-12
7.60728e-12
7.42365e-12
7.44802e-12
7.14503e-12
7.33299e-12
6.88145e-12
7.04174e-12
4.78749e-12
4.76632e-12
4.59959e-12
6.15677e-12
6.12073e-12
6.32992e-12
6.15955e-12
5.55362e-12
5.41666e-12
7.97432e-12
7.76228e-12
9.4963e-12
9.24773e-12
1.00876e-11
1.03417e-11
5.37347e-12
5.42824e-12
5.9726e-12
5.91083e-12
9.38747e-12
9.58227e-12
8.09987e-12
8.2866e-12
8.74103e-12
8.52573e-12
5.69686e-12
5.45679e-12
5.54818e-12
6.3744e-12
6.24715e-12
6.81529e-12
6.99796e-12
5.97243e-12
6.05309e-12
6.19133e-12
6.63812e-12
5.1682e-12
5.19588e-12
7.27628e-13
7.68543e-13
5.4963e-12
5.70011e-12
4.92364e-12
4.66436e-12
4.90612e-12
3.83144e-12
3.67529e-12
3.59745e-12
4.14935e-12
4.02862e-12
8.72405e-12
8.89279e-12
8.83474e-12
8.68948e-12
9.54314e-12
9.59884e-12
1.0638e-11
1.08553e-11
1.06536e-11
9.05228e-12
9.057e-12
9.56486e-12
9.47888e-12
7.22839e-12
7.29056e-12
6.38812e-12
6.54274e-12
6.67644e-12
6.93999e-12
7.57257e-12
7.28327e-12
7.81847e-12
7.7256e-12
1.05878e-12
9.4975e-13
4.30938e-13
3.17604e-13
1.09124e-12
9.95731e-13
1.55191e-12
1.45656e-12
1.49465e-12
1.3181e-12
1.33085e-12
1.39995e-12
2.11049e-12
2.0354e-12
2.25131e-12
2.17928e-12
2.64429e-12
2.46682e-12
3.30683e-12
3.34304e-12
2.97269e-12
3.07707e-12
3.06139e-12
2.92788e-12
4.26943e-12
4.40919e-12
3.89984e-12
3.73695e-12
4.96606e-12
5.03062e-12
5.08513e-12
5.07065e-12
5.62674e-12
5.60415e-12
5.88745e-12
5.74481e-12
3.56184e-12
3.52091e-12
-3.63231e-12
-3.65291e-12
-5.50994e-12
-5.55084e-12
-5.93775e-12
-6.03215e-12
-5.30624e-12
-5.4166e-12
-4.88324e-12
-5.00168e-12
-4.19285e-12
-4.33278e-12
-6.16324e-12
-6.15417e-12
-4.87692e-12
-5.0132e-12
-4.08175e-12
-4.077e-12
-4.56822e-12
-4.40679e-12
-4.38014e-12
-4.23306e-12
-5.05491e-12
-4.91785e-12
-4.68376e-12
-4.54159e-12
-4.80801e-12
-5.28576e-12
-5.15309e-12
-5.42047e-12
-5.23945e-12
-5.3666e-12
-5.8389e-12
-5.94718e-12
-7.05909e-12
-7.05368e-12
-6.77977e-12
-6.75874e-12
-6.43799e-12
-6.40868e-12
-6.40392e-12
-6.43077e-12
-6.21182e-12
-6.22488e-12
-6.34614e-12
-6.25681e-12
-6.87727e-12
-6.8707e-12
-6.79154e-12
-6.79332e-12
-7.00369e-12
-7.00417e-12
-7.16152e-12
-7.16486e-12
-7.06806e-12
-7.08086e-12
-6.95996e-12
-6.97055e-12
-7.09202e-12
-7.11754e-12
-7.04409e-12
-7.07786e-12
-7.04493e-12
-7.04513e-12
-7.18159e-12
-7.18303e-12
-7.20666e-12
-7.20185e-12
-7.21129e-12
-7.21076e-12
-7.1912e-12
-7.19814e-12
-7.16958e-12
-7.18625e-12
-6.27306e-12
-6.19831e-12
-7.11306e-12
-7.13245e-12
-7.10361e-12
-7.10214e-12
-7.14916e-12
-5.2372e-12
-5.12512e-12
-2.59723e-12
-2.69474e-12
-3.23302e-12
-3.34382e-12
-2.5632e-12
-2.65108e-12
-2.53602e-12
-2.62596e-12
-2.36689e-12
-2.44941e-12
-2.10189e-12
-2.15764e-12
-2.0625e-12
-2.05961e-12
-2.17509e-12
-2.24254e-12
-2.03603e-12
-2.01709e-12
-6.60097e-12
-6.59527e-12
-5.70847e-12
-5.69957e-12
-5.33647e-12
-5.32922e-12
-5.56838e-12
-5.46891e-12
-4.68482e-12
-4.67765e-12
-4.90099e-12
-4.89462e-12
-3.81428e-12
-3.81802e-12
-2.65351e-12
-2.65278e-12
-2.04408e-12
-2.03269e-12
7.20492e-13
7.74223e-13
3.97346e-12
4.21095e-12
4.05975e-12
4.68303e-12
4.54774e-12
4.93124e-12
4.82115e-12
4.7413e-12
5.40731e-12
6.82513e-12
1.52246e-12
1.39023e-12
4.19874e-12
4.04342e-12
8.31475e-12
8.40061e-12
5.82231e-12
6.02842e-12
1.71466e-12
1.80291e-12
3.38316e-12
3.54243e-12
2.72678e-12
2.94189e-12
4.93713e-12
4.7323e-12
4.98007e-12
4.61839e-12
4.73631e-12
4.79586e-12
4.59625e-12
2.86853e-12
3.06292e-12
3.09404e-12
-1.6182e-12
-1.65829e-12
6.1338e-13
7.77584e-13
-4.08521e-12
-3.92475e-12
-3.99463e-12
-3.9905e-12
-2.12113e-12
-2.21022e-12
-1.28729e-12
-1.27165e-12
-5.49176e-12
-5.59816e-12
-6.22333e-12
-6.25836e-12
-5.28643e-12
-5.32204e-12
-4.88956e-12
-4.85201e-12
-4.24716e-12
-4.21246e-12
-4.08353e-12
-4.05285e-12
-1.64504e-12
-1.62672e-12
-3.10786e-12
-3.09039e-12
-2.08384e-12
-2.02053e-12
3.39793e-12
3.54976e-12
3.20543e-12
3.35621e-12
-9.54595e-13
-1.10656e-12
-9.1011e-13
-1.07708e-12
-5.01283e-13
-5.56782e-13
-4.45536e-13
2.3166e-14
1.76518e-14
2.5438e-12
2.39543e-12
1.34251e-12
1.23315e-12
6.56156e-13
5.33275e-13
4.91006e-13
3.79292e-13
6.67651e-13
7.67376e-13
1.67089e-12
1.58617e-12
1.24087e-12
1.15576e-12
1.43613e-12
1.35748e-12
3.36223e-12
3.36843e-12
8.114e-12
7.8987e-12
7.92012e-12
7.73089e-12
9.06063e-12
9.0055e-12
9.29877e-12
9.51742e-12
7.50274e-12
7.39138e-12
8.08844e-12
8.12257e-12
7.12503e-12
6.92049e-12
3.73456e-12
3.76004e-12
4.78875e-12
5.96497e-12
9.86738e-12
1.0008e-11
5.60684e-12
5.54986e-12
9.77898e-12
8.11116e-12
7.91522e-12
8.54667e-12
8.33052e-12
6.90763e-12
7.04696e-12
6.76143e-12
6.95718e-12
7.10992e-12
7.12385e-12
5.74128e-12
5.42537e-12
5.47443e-12
4.24405e-12
2.15792e-12
2.19697e-12
5.70484e-12
5.94061e-12
4.80617e-12
4.95705e-12
4.16643e-12
4.415e-12
3.33962e-12
8.04558e-12
7.74346e-12
7.32471e-12
8.59799e-12
8.55673e-12
8.61919e-12
8.38157e-12
8.99003e-12
8.78638e-12
1.0153e-11
1.01624e-11
1.06674e-11
1.05612e-11
8.76605e-12
8.76519e-12
9.20673e-12
9.28939e-12
6.99332e-12
7.12857e-12
6.6482e-12
6.71325e-12
7.17861e-12
6.90816e-12
1.9002e-12
1.77658e-12
1.40371e-12
1.27736e-12
8.38488e-13
6.92935e-13
5.56515e-13
1.00715e-12
1.08744e-12
9.81975e-13
8.21122e-13
1.02476e-12
1.20144e-12
1.68554e-12
1.80002e-12
1.5794e-12
1.94132e-12
4.06297e-12
4.15332e-12
3.52473e-12
3.5642e-12
2.65297e-12
2.53284e-12
4.49171e-12
4.63908e-12
4.81961e-12
4.8093e-12
5.48715e-12
5.54335e-12
-3.61415e-12
-3.73757e-12
-2.075e-12
-2.10586e-12
-5.99939e-12
-5.93309e-12
-2.883e-12
-2.71978e-12
-3.93236e-12
-4.07003e-12
-5.59645e-12
-5.62978e-12
-4.96294e-12
-5.07928e-12
-5.19201e-12
-5.3051e-12
-5.11795e-12
-3.95659e-12
-3.83521e-12
-5.95591e-12
-5.96367e-12
-6.04749e-12
-6.14403e-12
-4.63153e-12
-4.50736e-12
-3.96088e-12
-3.82284e-12
-3.93293e-12
-3.93762e-12
-4.04539e-12
-4.03848e-12
-3.94743e-12
-3.79151e-12
-4.08336e-12
-4.79284e-12
-4.77787e-12
-4.66759e-12
-4.52495e-12
-5.28081e-12
-5.14854e-12
-5.43689e-12
-5.42812e-12
-6.22376e-12
-6.12553e-12
-5.93915e-12
-5.83003e-12
-7.00087e-12
-7.00697e-12
-6.78345e-12
-6.80334e-12
-6.57596e-12
-6.62399e-12
-6.46677e-12
-5.81503e-12
-5.85291e-12
-6.78623e-12
-6.84065e-12
-6.60582e-12
-6.59724e-12
-6.42094e-12
-6.40971e-12
-6.583e-12
-6.58618e-12
-6.70381e-12
-6.70884e-12
-6.84969e-12
-6.78922e-12
-6.95776e-12
-6.95852e-12
-7.00242e-12
-7.1279e-12
-7.13189e-12
-7.11428e-12
-7.12906e-12
-7.00962e-12
-7.04399e-12
-7.14786e-12
-7.12973e-12
-7.06235e-12
-7.05341e-12
-7.06919e-12
-7.03247e-12
-7.11351e-12
-7.11303e-12
-7.14065e-12
-7.19361e-12
-7.17888e-12
-7.20262e-12
-7.19398e-12
-7.20929e-12
-7.20178e-12
-7.1943e-12
-7.176e-12
-7.19195e-12
-7.1981e-12
-6.94601e-12
-6.96354e-12
-7.10586e-12
-7.12471e-12
-7.12364e-12
-7.11899e-12
-7.10033e-12
-7.12725e-12
-5.81391e-12
-5.71315e-12
-3.94107e-12
-3.93689e-12
-2.72467e-12
-2.74332e-12
-2.66679e-12
-3.23094e-12
-3.34181e-12
-3.11256e-12
-3.00395e-12
-2.80469e-12
-2.90529e-12
-2.71884e-12
-2.71332e-12
-2.37245e-12
-2.45571e-12
-2.10523e-12
-2.16139e-12
-2.05655e-12
-2.05335e-12
-2.48316e-12
-2.3927e-12
-2.17199e-12
-2.23904e-12
-2.1261e-12
-2.078e-12
-6.46446e-12
-6.4394e-12
-6.54312e-12
-6.49198e-12
-5.64541e-12
-5.63612e-12
-5.89664e-12
-5.88859e-12
-6.27723e-12
-6.33528e-12
-5.64861e-12
-5.64492e-12
-5.35334e-12
-5.35804e-12
-4.71444e-12
-4.81589e-12
-4.67072e-12
-4.66412e-12
-4.47772e-12
-4.48322e-12
-3.8216e-12
-3.82376e-12
-2.03077e-12
-2.03106e-12
-2.0433e-12
-2.03763e-12
-2.03265e-12
1.10623e-13
-3.48166e-14
7.62559e-12
7.32183e-12
4.48962e-12
4.65867e-12
4.41099e-12
3.89468e-12
4.5849e-12
4.65232e-12
5.39051e-12
5.08622e-12
4.87189e-12
5.08182e-12
-1.87547e-12
-2.06085e-12
2.96037e-12
2.88606e-12
6.05028e-12
5.76893e-12
7.95827e-12
7.98853e-12
8.69012e-12
8.98278e-12
7.73173e-12
7.88386e-12
6.51594e-12
6.39859e-12
2.11978e-12
2.34133e-12
3.22008e-12
3.36277e-12
2.73729e-12
2.62022e-12
2.51122e-12
4.84474e-12
4.58478e-12
4.62576e-12
5.80333e-12
6.10825e-12
4.41461e-12
4.51731e-12
4.18064e-12
5.9835e-12
6.23031e-12
6.24817e-12
-5.35413e-13
-4.55903e-13
-3.65211e-13
5.94283e-13
3.68904e-13
-5.33788e-12
-5.28357e-12
-4.85169e-12
-4.87846e-12
-3.77924e-12
-3.74856e-12
-2.66126e-12
-2.76317e-12
-2.14272e-12
-2.23242e-12
-1.27171e-12
-1.2562e-12
-1.75335e-12
-1.67993e-12
-5.58511e-12
-5.47856e-12
-5.73484e-12
-5.69489e-12
-5.18268e-12
-5.21803e-12
-5.00557e-12
-5.04124e-12
-4.99033e-12
-4.95237e-12
-4.4621e-12
-4.49658e-12
-4.02442e-12
-3.99085e-12
-1.81283e-12
-1.79183e-12
-1.72132e-12
-1.67738e-12
-1.69234e-12
-1.6744e-12
-3.15515e-12
-3.13302e-12
-2.95211e-12
-2.92822e-12
-2.2256e-12
-2.14314e-12
-1.9171e-12
-1.89805e-12
3.09069e-12
3.24537e-12
2.94685e-12
2.79802e-12
-1.01541e-12
-8.61181e-13
-1.09337e-12
-9.28591e-13
1.87283e-13
2.3393e-13
-6.17387e-13
-6.34457e-13
2.05514e-14
3.14939e-14
1.47812e-12
1.31422e-12
2.0672e-12
2.16454e-12
7.07015e-13
5.81615e-13
7.27574e-13
8.42316e-13
4.80869e-13
3.70914e-13
8.64475e-13
9.58817e-13
1.66307e-12
1.73702e-12
1.28234e-12
1.19181e-12
1.40368e-12
1.32353e-12
1.27571e-12
1.19149e-12
3.02639e-12
2.91369e-12
8.4091e-12
8.47888e-12
8.2792e-12
7.72901e-12
7.53293e-12
8.84018e-12
8.77461e-12
7.58708e-12
3.67235e-12
2.7239e-12
2.82655e-12
9.39923e-12
9.44185e-12
9.58071e-12
7.91704e-12
7.70956e-12
5.95602e-12
6.13323e-12
7.65667e-12
7.43997e-12
7.35265e-12
6.48532e-12
5.07166e-12
1.93776e-12
1.9483e-12
3.06459e-12
2.81997e-12
2.79125e-12
5.43389e-12
5.19391e-12
4.28927e-12
4.41997e-12
7.21923e-12
6.9929e-12
6.90092e-12
8.17321e-12
8.07792e-12
9.15607e-12
9.5095e-12
8.80064e-12
8.89971e-12
8.72886e-12
8.52912e-12
9.88489e-12
9.89602e-12
1.02901e-11
1.03841e-11
8.65613e-12
8.7298e-12
9.33413e-12
9.34218e-12
6.83614e-12
6.69914e-12
1.16564e-12
1.27049e-12
1.14987e-12
9.91373e-13
6.5326e-13
7.46728e-13
1.36576e-12
1.16467e-12
1.15815e-12
1.12708e-12
2.02482e-12
3.91877e-12
3.83341e-12
4.22389e-12
4.27338e-12
3.18308e-12
3.29173e-12
5.34698e-12
5.31347e-12
-7.2828e-13
-6.09248e-13
3.41507e-13
3.19606e-13
-2.21093e-12
-2.23126e-12
-6.2839e-12
-6.31477e-12
-5.67241e-12
-5.66197e-12
-2.53576e-12
-2.38179e-12
-4.74607e-12
-4.86843e-12
-4.40238e-12
-4.26964e-12
-3.55967e-12
-3.43463e-12
-5.73057e-12
-5.69345e-12
-5.454e-12
-5.56099e-12
-5.15712e-12
-5.19371e-12
-5.23226e-12
-5.34435e-12
-3.93368e-12
-3.81353e-12
-5.851e-12
-5.85796e-12
-6.05702e-12
-6.06549e-12
-5.23179e-12
-5.11508e-12
-3.98144e-12
-3.84472e-12
-3.97168e-12
-3.83431e-12
-3.93936e-12
-3.7928e-12
-4.41945e-12
-4.58225e-12
-3.76725e-12
-3.75707e-12
-4.06849e-12
-4.05572e-12
-3.81136e-12
-3.96665e-12
-4.93168e-12
-5.06772e-12
-5.41413e-12
-5.40879e-12
-5.33057e-12
-5.20076e-12
-6.13198e-12
-6.22967e-12
-5.93124e-12
-5.82133e-12
-7.07454e-12
-7.06845e-12
-6.99031e-12
-6.98789e-12
-6.80826e-12
-6.8269e-12
-6.49591e-12
-6.46769e-12
-6.23916e-12
-6.20627e-12
-5.9467e-12
-5.90982e-12
-6.3533e-12
-6.43017e-12
-6.35259e-12
-6.33486e-12
-6.52108e-12
-6.5296e-12
-6.23665e-12
-6.24725e-12
-6.30027e-12
-6.30621e-12
-6.92921e-12
-6.92279e-12
-6.8364e-12
-6.83169e-12
-6.84716e-12
-6.8441e-12
-6.72397e-12
-6.72665e-12
-7.00041e-12
-6.99775e-12
-6.90709e-12
-6.90816e-12
-7.18148e-12
-7.17132e-12
-7.1435e-12
-7.13888e-12
-7.12771e-12
-7.14176e-12
-6.90767e-12
-6.92273e-12
-7.10734e-12
-7.13272e-12
-7.13917e-12
-7.15713e-12
-7.1769e-12
-7.15974e-12
-7.06548e-12
-7.02845e-12
-7.08152e-12
-7.08143e-12
-7.19341e-12
-7.17785e-12
-7.19892e-12
-7.19e-12
-7.20939e-12
-7.2109e-12
-7.20454e-12
-7.19654e-12
-7.20307e-12
-7.20106e-12
-6.28214e-12
-6.20642e-12
-6.98942e-12
-6.94894e-12
-7.08952e-12
-7.08276e-12
-7.06844e-12
-7.0672e-12
-7.13006e-12
-7.13224e-12
-5.22835e-12
-5.11607e-12
-3.47561e-12
-3.36114e-12
-1.91521e-12
-1.92321e-12
-3.00501e-12
-3.11385e-12
-3.11722e-12
-3.11533e-12
-3.01684e-12
-3.12247e-12
-3.02069e-12
-3.12738e-12
-3.01005e-12
-3.11938e-12
-2.81004e-12
-2.91039e-12
-2.62006e-12
-2.53011e-12
-2.01009e-12
-1.99184e-12
-2.10845e-12
-2.16506e-12
-2.40239e-12
-2.49372e-12
-2.17792e-12
-2.24564e-12
-2.04142e-12
-2.02203e-12
-2.04427e-12
-2.0246e-12
-6.45645e-12
-6.44623e-12
-6.42876e-12
-6.45351e-12
-6.47852e-12
-6.52859e-12
-5.62732e-12
-5.61874e-12
-6.13364e-12
-6.12554e-12
-6.27077e-12
-6.32666e-12
-5.55141e-12
-5.54683e-12
-5.65661e-12
-5.74987e-12
-5.14073e-12
-5.24813e-12
-5.36253e-12
-5.36674e-12
-4.79329e-12
-4.7999e-12
-4.23386e-12
-4.24979e-12
-3.69706e-12
-3.69664e-12
-2.80007e-12
-2.90296e-12
-3.0772e-12
-3.07764e-12
-2.22286e-12
-2.22035e-12
-2.06461e-12
-1.80658e-13
-3.29115e-13
1.12332e-12
9.00969e-13
7.15004e-12
6.84925e-12
3.58867e-12
3.62728e-12
5.0792e-12
4.82814e-12
4.28085e-12
4.15623e-12
5.62651e-12
5.73238e-12
5.94184e-12
5.86748e-12
5.20988e-12
5.40368e-12