/*--------------------------------*- C++ -*----------------------------------*\
  =========                 |
  \\      /  F ield         | OpenFOAM: The Open Source CFD Toolbox
   \\    /   O peration     | Website:  https://openfoam.org
    \\  /    A nd           | Version:  7
     \\/     M anipulation  |
\*---------------------------------------------------------------------------*/
FoamFile
{
    version     2.0;
    format      ascii;
    class       volScalarField;
    location    "1320";
    object      T;
}
// * * * * * * * * * * * * * * * * * * * * * * * * * * * * * * * * * * * * * //

dimensions      [0 0 0 1 0 0 0];

internalField   nonuniform List<scalar> 
238806
(
0.999105
1.00581
0.969517
1.3254
1.17661
1.00725
0.99794
0.993771
0.993692
0.972725
0.994143
1.18483
1.00222
0.999858
1.23848
1.21952
0.992809
0.985892
0.992011
1.00441
0.993987
0.991811
1.14976
1.01145
1.18067
0.966226
0.978174
1.00562
1.07867
1.18617
1.00333
1.00348
0.995537
1.00222
1.00263
1.00264
0.994512
0.994591
0.998093
1.0292
1.02365
1.27295
1.00099
1.00096
1.0031
0.991222
0.986208
0.978798
1.00129
0.993423
1.00249
1.0037
1.002
0.999177
1.0114
1.01433
0.966892
0.947678
0.986322
0.953864
0.968612
1.01098
0.981076
0.993097
0.994681
1.00357
1.00231
0.995274
1.00208
1.00163
1.00018
1.00015
1.00131
0.990948
0.997714
1.00572
0.995825
1.00454
1.00461
0.994615
0.996318
0.999032
0.995597
0.996342
0.990499
0.994361
0.995247
1.00629
1.03716
1.01155
1.00622
1.01344
1.00894
0.997406
0.994983
1.00466
1.00489
0.987415
0.974974
1.2863
0.991013
0.995068
0.992432
1.00237
1.00595
0.989409
0.988432
0.988419
0.991592
1.00233
0.999566
0.990651
0.996979
1.00403
1.0024
1.00239
1.0026
1.02774
1.03512
1.0321
1.05739
1.14491
0.990015
0.995088
1.00757
0.997893
1.14131
1.19828
1.00333
1.11203
1.0201
0.961296
0.980529
1.29453
0.963407
0.984191
0.991955
0.991831
0.961845
1.16192
1.09367
1.21571
0.999283
0.997654
0.998118
0.99366
0.992789
0.993113
0.996
0.99417
0.991479
0.996752
0.992323
0.992019
0.995797
0.988865
0.988248
0.997288
1.00106
0.994558
0.992535
1.00556
0.99815
1.00033
0.997879
1.00095
1.00093
1.00299
1.00101
0.988675
0.988856
0.997349
0.99449
1.07429
1.05801
1.11224
0.990093
0.996254
1.00224
0.996412
1.13769
1.19782
1.41053
0.978115
0.961352
0.98435
0.937837
1.11831
0.997202
0.998238
1.0027
1.00277
0.987231
1.03608
0.975039
0.963178
0.97739
1.17264
1.33808
1.07833
1.2133
0.995523
0.990241
0.996959
0.997941
0.995668
0.998444
0.990161
0.98927
0.991392
0.994888
0.981996
0.990272
0.997404
0.999954
1.00078
1.00025
0.9803
0.989466
0.994202
0.98927
0.995746
0.992518
0.989944
1.00463
0.997706
1.0002
1.00274
1.00272
1.00393
1.00392
0.995847
0.995867
1.0047
1.0047
0.994943
0.994936
0.990329
0.99029
1.00062
1.0335
1.08193
1.04011
1.00294
1.00251
0.990919
0.999681
0.995059
1.00081
0.99598
0.995771
0.992076
0.993304
0.9986
0.993607
0.996416
1.01889
1.01498
1.02573
0.995242
0.997495
1.00218
1.00279
1.00512
1.00415
0.983764
0.981845
1.00606
1.00272
0.983137
0.983737
0.991374
1.07026
0.98967
1.2485
1.1038
0.990193
0.995133
0.992574
0.993716
0.992739
0.99441
0.990294
0.988215
1.00257
1.00285
1.00177
0.999087
0.997636
0.999742
0.979179
0.986343
0.995632
0.998752
1.00073
0.99884
1.00042
0.995826
0.993482
0.984728
0.994298
0.999158
1.00578
1.00437
0.989074
0.9884
1.0045
1.00263
1.00559
0.99307
1.00143
1.00281
1.00102
1.00277
0.996143
0.996819
0.993566
0.9935
1.00397
1.00395
1.00357
1.00359
0.996216
0.994536
1.0041
1.0039
0.994697
0.994703
1.03059
0.997161
0.996612
1.13388
1.10967
0.997023
0.997016
0.99506
0.995054
0.972738
0.972237
1.03951
0.977312
1.00765
0.998173
0.995541
1.00151
0.996704
0.996523
1.21035
1.23283
1.05368
1.26163
1.09547
1.09294
0.971174
1.07
1.00582
1.00455
0.996141
1.00095
1.00097
1.00485
1.00447
0.994851
0.999012
1.00102
0.988363
1.13022
1.06312
1.16317
1.01648
1.01517
1.02103
1.00706
1.40538
1.11775
1.06429
1.09342
0.996488
1.00373
1.01838
0.997408
1.00364
1.00141
0.997714
0.991708
0.997448
0.991012
0.987571
0.987469
0.987816
0.989005
1.0059
1.00199
1.00083
0.996591
1.0029
1.00258
0.995506
0.991515
0.995984
0.995082
0.982839
0.978801
0.990469
0.992407
0.993898
0.997226
1.00037
1.00035
0.99329
0.986284
0.978425
0.979841
0.991866
0.996658
1.00419
1.00341
0.99052
0.988607
1.0025
1.0043
0.997305
0.995833
1.00446
1.00449
1.0011
1.00278
0.995588
0.994268
0.994265
1.00398
1.00397
1.00316
1.00321
1.00468
1.00465
0.996435
0.996406
0.990123
0.990232
1.0039
1.0039
0.995532
0.994444
1.0036
1.00361
1.01199
1.01463
1.00853
0.993376
0.995856
0.89953
1.12356
1.08317
1.16464
1.01139
1.01431
0.991786
0.991776
0.967058
0.967555
1.12022
1.09383
1.18895
1.1199
0.960603
1.04455
0.994851
0.997417
1.00626
0.997198
0.996579
0.993317
0.984687
0.997004
1.02056
0.978578
1.15352
1.26503
0.939097
1.17561
0.980972
0.99686
0.993203
0.993303
0.991421
0.993791
0.993805
1.00528
1.00389
1.00116
1.00165
1.00439
1.00466
1.00705
1.00196
0.993558
0.988876
1.19624
0.987539
0.982728
1.00489
1.09444
1.25304
1.12272
1.22384
1.01934
1.0437
0.999374
1.00098
1.00097
1.0179
0.990529
0.995767
0.990824
0.990526
0.991961
0.995538
0.993266
0.993038
0.987633
0.988988
0.989973
0.99023
1.00275
1.00235
1.00259
1.0029
0.993178
0.992655
1.0026
1.00285
0.999537
1.00191
0.992961
0.99737
0.980266
0.978611
1.12682
1.11705
0.988659
0.990346
0.988363
0.988902
0.992137
0.989478
0.997837
0.993935
0.999147
1.00067
0.997471
0.991522
0.982099
0.978421
0.988694
0.98834
0.990081
0.994146
1.00353
1.00496
0.996692
0.999863
0.991703
0.989223
0.990145
0.986836
1.00483
1.00312
1.00196
1.00259
0.992452
0.995222
0.994404
0.995139
1.00264
1.00266
0.997617
0.998379
0.992512
0.992908
1.00134
1.00007
1.00415
1.00411
1.00287
1.00088
1.00386
1.00385
0.994012
0.993999
0.991396
0.995975
1.00428
1.00404
1.00409
1.00409
0.995292
0.995286
0.99691
0.996994
1.00228
1.00429
1.00197
0.999292
1.03059
1.04355
1.02816
1.08026
0.999943
0.995995
0.997859
0.99428
1.00939
0.993446
1.11273
1.0715
1.00364
1.00793
1.00027
0.999585
1.0047
1.00705
1.00014
0.999596
1.1066
1.10745
1.11356
1.10185
1.1133
1.10405
1.03089
0.9922
0.989996
0.99151
0.994655
0.994899
0.99735
0.996664
1.00645
0.997517
0.990317
0.989816
0.989583
0.99385
1.18892
1.19425
1.01136
1.0067
0.994488
0.979578
0.982324
0.997834
1.21414
0.996075
0.99156
1.03559
1.0389
0.995714
0.992463
0.991749
0.992083
1.00533
1.00376
0.996686
0.997239
1.00501
1.0043
0.989652
0.986483
1.01087
1.01375
1.02206
1.09328
0.984649
1.27479
0.980195
0.990872
1.00952
0.891744
1.09315
1.01122
1.0053
0.989167
0.998812
1.27889
1.23662
0.994134
0.99424
0.996907
1.0149
1.00156
1.00359
0.99668
0.987918
0.995556
0.98691
0.99861
0.990672
0.988367
0.99178
0.992404
1.00198
1.00222
1.00174
1.00045
0.997446
1.00122
0.994465
1.00312
1.00013
1.00204
1.00261
1.0029
0.998803
0.997319
0.996318
0.99262
0.979485
0.981819
1.03074
1.06353
0.983281
0.991427
0.991938
0.988952
0.989196
0.991086
0.988594
0.988511
0.988835
0.990783
0.999611
0.996125
0.999996
0.995988
0.988042
0.981518
0.989731
0.988126
1.00412
1.00422
0.995105
0.993156
0.995208
0.994226
0.987734
0.988979
1.00532
0.999968
1.00265
1.00495
1.00018
0.994751
0.991671
1.00334
1.00258
1.00269
1.00444
0.99954
0.998517
1.00159
1.00109
0.989029
0.988648
1.04421
1.05175
1.06028
1.05987
0.997008
0.999085
1.00287
1.00293
1.00368
1.00365
1.00481
1.00481
0.996826
0.996823
0.99547
0.99895
1.00473
1.00442
0.988471
0.988477
0.993643
0.993719
1.00098
1.001
1.00389
1.00389
0.996345
0.996401
0.994174
0.994166
0.995318
0.995354
1.03313
1.03315
0.995035
0.995202
1.00437
1.00233
1.02401
1.02149
1.01322
1.01016
1.02583
0.994068
0.972977
1.04658
1.00946
1.00958
1.04096
1.08485
1.00045
0.996179
0.997119
0.995249
0.99641
0.998144
1.01843
1.00645
1.00019
1.01915
1.00387
1.00389
0.994506
0.994493
1.00362
1.00795
1.01151
1.01446
0.988587
0.986498
0.996584
0.996542
0.991963
0.99185
0.994355
0.993976
0.999098
0.998623
0.969847
0.969282
1.05726
1.01145
1.03697
1.00512
0.997417
1.00988
1.01453
1.03974
0.940333
1.00744
1.00791
0.998616
0.992573
0.994857
0.996366
0.997839
0.994065
0.99701
1.00552
0.989446
0.993568
0.996365
0.995433
0.993892
1.07255
0.998744
0.995739
0.978154
0.992479
1.00856
1.10716
0.992374
0.996553
0.935252
1.10823
1.00096
0.998517
0.993872
0.994398
1.00522
1.00402
0.997764
0.998307
0.992472
0.993946
0.997228
0.993761
0.981203
0.982298
1.0423
0.997721
1.00298
1.19415
1.31735
1.08382
0.993051
0.998743
0.982235
0.983309
1.06528
1.14217
0.968537
0.95972
1.03289
1.01715
1.00979
1.01316
0.990288
0.994321
1.00053
1.03248
0.994713
0.992264
1.0056
1.00344
0.992151
0.98947
0.989205
1.00588
1.00589
1.00256
1.00257
0.992639
0.993794
1.00262
1.00283
0.991982
0.996235
0.981137
0.983776
0.977807
0.978632
1.04712
1.01438
0.982723
0.978551
1.00094
0.988298
0.98958
0.992968
0.991097
0.993809
0.990516
0.998449
1.00085
0.990546
0.997636
1.00341
1.00494
0.996342
0.994288
1.00075
0.997441
0.99777
0.995398
0.993606
0.995107
1.00506
1.00136
1.00102
1.00271
1.00546
1.00279
1.00262
1.00209
0.996609
0.994693
0.999598
1.00275
1.00443
1.00341
1.00349
1.00279
1.00303
1.0021
0.986156
1.04427
1.05171
0.996384
0.993965
0.998977
0.993651
0.993873
0.993949
1.00349
1.00344
1.0039
1.00389
1.00429
1.00423
1.00384
1.00354
0.996089
0.99475
0.995669
0.99904
1.00468
1.00436
0.989236
0.989182
0.996121
0.999219
0.993371
0.993266
0.992112
0.992198
0.997034
0.997111
1.0029
1.00286
1.00428
1.00427
1.00409
1.00408
0.993858
0.991773
0.994429
0.9955
0.988387
0.988356
1.0211
1.02119
0.996136
0.996146
0.991589
0.991585
1.00006
1.00004
1.00458
1.0039
0.994691
0.994957
1.008
1.00451
0.99044
1.01549
1.02133
1.04894
1.0554
1.03198
0.992328
1.01024
1.01048
0.995605
0.994196
0.996454
0.99541
0.993745
0.993538
0.996764
0.992173
1.10172
1.1566
1.03889
1.14613
0.989153
0.988771
1.00167
1.0039
0.995258
0.9954
1.01131
1.01419
1.00796
1.00363
1.01137
1.01429
0.993137
0.994397
0.994368
0.993447
0.994952
0.995267
0.996881
0.996876
0.992428
0.993353
0.996603
0.99687
0.99173
0.991815
1.00338
1.00385
0.983858
0.98557
1.10982
1.10928
0.968766
0.969521
1.03342
1.1491
0.988499
0.989209
1.0038
1.00123
0.994211
0.997939
0.999155
0.998261
1.00582
0.997019
1.00093
0.996703
0.986747
0.996531
1.06705
1.01475
1.06074
1.01657
0.96872
1.01344
1.00547
0.987733
0.999115
1.29371
1.04679
0.988652
1.03552
0.937159
1.11417
1.04251
1.00142
1.00109
0.99637
0.990704
0.99636
0.99695
0.999314
1.00246
1.00064
1.00005
0.999607
0.998426
1.02647
0.993656
0.995106
1.0088
0.984092
1.0076
0.990465
0.972581
1.02234
0.945278
0.995237
1.00752
1.00963
1.00406
1.0032
0.985041
0.98977
1.00826
1.06705
0.997199
0.981575
1.10429
1.00039
1.00331
0.994007
0.989776
1.0059
1.00119
1.00289
1.00583
1.00328
1.00223
0.994638
0.996319
0.989639
0.989579
0.998645
1.00166
1.00258
1.00276
1.00196
0.999819
0.989743
0.993223
0.978867
0.979816
0.978133
0.979087
1.10568
1.17574
0.977335
0.979843
1.00593
1.02981
0.988415
0.99031
0.989832
0.991784
0.999143
1.0011
1.00497
1.00403
1.00243
0.999754
0.996009
0.998866
0.992654
0.990113
1.00296
1.00476
1.00481
1.00233
1.00269
1.00134
1.00273
1.00529
1.0022
1.00273
0.99339
0.993663
1.00281
1.00132
1.00283
1.00445
1.00038
1.00323
0.986273
1.00235
0.995718
0.994081
0.993853
0.993747
0.993584
0.993814
0.988473
0.989138
0.99867
1.00115
1.00338
1.00281
1.00299
1.00305
1.00362
1.00311
1.00452
1.00456
1.00417
1.00414
0.995651
0.995721
0.994806
0.996133
0.992914
0.992821
1.00391
1.0037
1.00393
1.00374
1.00484
0.999131
0.999179
0.999202
0.999202
0.991923
0.994966
0.99489
0.990392
0.990465
0.993791
0.995343
1.00402
1.00384
1.00385
1.00387
0.99644
0.996501
1.00302
1.00302
1.00439
1.00438
0.998356
0.99842
0.992609
0.994383
1.00381
1.00381
0.995774
0.995526
0.988344
0.995294
1.02133
1.02127
1.01539
1.01538
0.992936
0.992931
0.991931
0.991962
0.994733
0.995098
1.00201
0.999239
1.00383
1.00458
0.999257
1.00192
0.995581
0.994777
1.02632
1.03466
0.991551
0.981405
1.04064
1.01597
0.965572
0.989824
1.07491
1.01503
1.03216
0.978708
1.05227
0.996419
1.00329
0.989918
0.98911
1.01101
1.02675
0.98724
0.994835
0.995943
0.998043
0.999991
1.27281
1.02438
1.05854
1.02487
1.06986
1.28963
1.19945
0.985963
0.980612
1.00163
1.00158
0.998232
0.992395
0.98626
0.986038
1.00312
1.00366
0.992504
0.993452
1.00796
1.00362
0.99306
0.994539
0.993425
0.994358
0.999344
0.998888
0.995077
0.99524
0.996909
0.996931
1.075
1.0752
1.06442
1.07862
1.00479
0.995346
0.99196
0.992169
0.99608
0.995713
0.993625
0.994252
0.996484
0.997968
1.10844
1.10915
0.975017
0.976765
0.988401
0.988883
1.02089
1.0055
0.998223
0.998234
0.996953
0.998685
0.994213
0.99742
1.00606
0.997062
1.01242
0.996713
0.993662
0.996195
0.964149
0.978106
0.983588
1.00039
1.00493
1.01918
1.00453
1.00569
1.01014
0.974394
0.982754
1.04381
1.04272
0.99735
1.00503
1.00023
1.00313
1.00207
0.998816
0.997505
0.99961
0.999411
0.993182
0.995612
0.997905
1.00846
1.03602
0.988601
1.01216
1.00528
1.0244
1.02096
1.01361
0.988629
1.01183
1.06046
1.16495
1.18781
1.04701
1.0816
1.00232
0.999775
0.997022
0.984873
0.991385
0.988348
0.967545
0.990771
1.02596
1.00023
1.20364
0.986012
1.00351
0.994158
1.00109
1.00356
1.00589
1.00671
1.00127
1.00197
1.00596
1.00291
0.998585
1.00243
1.00583
0.99245
1.00348
0.990681
0.992505
0.991812
0.993591
1.00143
0.998041
0.994777
0.997521
0.986738
0.982502
0.982407
0.985969
1.00501
0.985795
1.1013
1.06055
1.14439
1.17151
1.00965
1.088
1.05676
0.993842
0.988315
0.989212
1.00384
1.00498
0.99909
1.00233
0.995716
0.993748
0.994969
0.996749
0.993353
0.990975
1.0028
1.00465
1.00265
1.00481
1.00272
1.00513
0.993661
0.9945
1.00279
1.0012
1.00319
1.00261
0.9952
0.996331
0.996719
0.996221
1.02857
1.03135
1.04703
1.04382
1.01271
1.00941
0.993286
0.991524
0.995507
0.995451
0.996747
0.99543
1.00228
1.00243
1.00384
1.00381
1.00427
1.00423
1.00358
1.00354
1.00388
1.00347
1.00359
1.00447
1.00326
1.00331
1.00347
1.00351
1.04675
1.04679
0.995808
0.995827
0.996429
0.995931
1.04732
1.0491
0.988626
0.988709
0.993099
0.993192
0.999491
0.997462
1.00393
1.00373
1.00396
1.00378
0.989222
0.98932
0.995908
0.99131
0.988477
0.989081
0.991921
0.9918
0.995268
0.995192
1.00397
1.00379
1.00405
1.00433
0.998624
0.998568
1.00427
1.003
1.00388
1.00389
1.00441
1.0044
0.996694
0.996694
0.989732
0.989643
0.994202
0.992352
0.990736
1.00061
1.00059
0.995419
0.995413
0.99299
0.992993
0.998636
0.999834
1.02076
1.02036
1.02125
1.02106
1.03337
1.03345
0.997022
1.01556
0.994238
0.994243
0.994173
0.994335
1.00138
1.00139
1.0015
0.998674
1.00398
1.00458
0.994956
0.994948
0.999123
1.00179
1.00387
1.00458
1.00447
1.0031
0.994964
0.995708
1.02592
1.02327
1.02956
1.03656
1.02919
1.01898
0.993978
1.00569
1.00497
1.03789
1.00704
1.06501
1.02477
1.00056
0.996064
0.995651
0.984692
0.987222
0.990254
0.9828
0.992947
0.989848
1.00146
1.00574
0.995989
0.994309
0.994074
0.994409
0.999659
1.00716
1.00156
1.04891
1.02092
1.03809
1.16624
1.02618
1.00432
1.0076
1.12048
1.03844
0.984037
0.982396
0.996019
0.99551
1.00206
1.0039
0.993401
0.993352
0.984618
0.984451
1.00366
1.00366
1.01207
1.03123
0.993416
0.992488
1.01135
1.01427
1.01145
1.01439
0.992394
0.993115
0.993046
0.992904
0.99432
0.99336
1.00213
1.00213
0.995471
0.994651
0.99531
0.995378
0.996128
0.996058
0.999047
0.999061
1.07777
1.07358
1.07449
0.995352
1.00468
0.996566
0.996517
0.996351
0.995768
0.993654
0.99335
1.00704
1.00709
1.10237
1.10351
1.00388
1.00522
0.971711
0.972618
1.03413
1.03429
1.21027
1.22727
0.990789
0.992394
1.01293
1.01238
0.994504
0.997152
1.00245
1.00348
0.994559
0.996928
1.00677
0.997985
0.993496
0.993178
1.18838
1.18156
0.977036
1.01453
0.992545
0.996361
1.00282
0.999789
1.00302
0.992521
0.991531
1.01046
0.997869
1.0137
1.15875
1.18985
0.994903
0.982689
0.984928
1.01594
1.1321
1.09622
1.21234
1.18277
1.17384
1.00295
0.999424
0.982669
0.980616
0.980288
0.981541
0.995019
1.01153
1.00718
1.11724
1.00427
0.984605
0.987273
0.994686
0.997376
1.00694
1.00074
1.00601
1.00071
0.996382
1.00226
1.00596
0.999337
1.00279
0.994456
1.00277
1.00307
1.00564
0.990787
0.990488
0.989782
0.994382
1.00053
1.00046
0.99929
0.996044
0.991534
0.978402
0.979361
0.99299
1.0057
1.18495
1.17766
1.03923
0.979554
0.980031
1.00534
1.00305
1.0046
1.00365
1.00498
0.996981
0.994796
0.994586
0.995811
1.00264
1.00471
1.00028
1.00123
0.999777
0.999791
1.0025
1.0021
0.995969
0.996
0.999137
0.999131
0.993957
0.993916
1.05849
1.0363
1.01866
1.02226
0.997999
0.997146
1.04083
0.992083
0.992641
0.991718
0.993473
0.989988
0.989905
0.994294
0.99408
0.992415
0.992469
1.00094
0.998448
1.00425
1.00469
1.00332
1.00326
1.00379
1.00398
1.00419
1.00387
1.00385
1.00154
1.00168
1.0047
1.00481
1.00456
1.00454
1.00382
1.00381
0.992443
0.992451
0.996384
0.996362
0.995973
0.995968
0.996818
0.99499
0.996248
0.991584
0.991741
0.995926
0.994305
0.991242
0.989668
1.0039
1.00368
1.00356
1.00454
1.00411
1.0041
1.00395
1.00377
1.00416
0.998821
0.998905
0.99616
0.996386
0.989037
0.988994
0.989784
0.989959
0.992018
0.990314
1.00426
1.00431
1.004
1.00382
1.00426
1.00079
1.00074
0.99873
0.998777
1.00094
1.00407
1.00406
1.00485
1.00485
1.0044
0.994023
0.995064
0.99312
0.992995
0.989049
0.988526
0.990461
0.990618
0.997735
0.997747
1.00858
1.0338
0.993202
0.993527
0.993538
0.994133
0.994222
0.995404
0.995326
0.988338
0.98834
1.02005
0.994411
1.03387
1.0341
1.01568
1.01581
1.03328
1.02122
0.992992
0.992955
0.993776
0.993778
0.996135
0.996138
1.00168
1.00168
0.995121
0.995116
1.00357
1.00382
0.999838
1.00177
0.998127
0.997958
0.999311
1.00209
0.996824
0.995242
1.00302
1.00309
1.00379
1.00458
0.994699
0.994957
1.00053
0.997635
1.00108
1.0003
1.01383
0.996378
1.00456
0.995815
0.996016
1.01458
1.01535
1.00128
1.00212
1.00464
1.00867
1.03044
1.12618
1.00405
1.08136
0.955444
0.907686
1.00827
1.00844
1.002
0.99447
0.98426
0.984897
1.00934
1.0061
0.982622
0.983159
0.999908
0.985765
1.01209
1.10788
0.999043
1.00096
0.995624
0.995175
1.00876
1.00125
0.996754
1.01428
1.0141
0.990543
1.02159
1.02476
1.05208
0.998817
1.03104
1.01297
0.999018
1.00499
0.997994
0.990592
0.988658
1.00383
1.00385
0.996747
0.999504
0.985776
0.980362
0.99514
0.997019
1.01691
1.01689
0.99008
0.990026
0.985368
0.985238
0.990943
0.990869
1.00311
1.00311
0.999631
1.00384
0.993384
0.992475
0.995383
0.994739
1.01134
1.01425
0.999346
0.996671
1.0115
1.01444
1.01222
1.01514
0.99332
0.993161
1.03159
1.03104
0.988543
0.986697
0.988537
0.986615
0.987152
0.987286
1.00337
1.00348
0.997032
0.996319
0.99513
0.995099
0.995454
0.995514
0.997223
0.997209
0.991909
0.991613
0.996109
0.999936
1.00708
1.00494
1.00258
1.00248
1.00401
1.00569
0.992297
0.992154
0.99646
0.996903
1.00361
1.00398
1.10463
1.10558
0.984678
0.980958
1.00391
1.00477
0.970057
0.97081
1.03382
1.03337
0.99196
0.991721
0.990112
0.988682
0.999017
1.00549
0.999825
0.995674
0.998895
1.00001
1.11144
0.994577
0.994075
1.00651
0.998534
1.00666
0.998209
1.00581
0.995701
0.988193
0.996403
1.01118
1.17993
1.00986
1.03795
1.22098
1.28644
1.00159
1.02922
1.17536
0.988435
0.992244
0.984322
0.994767
0.974069
0.970716
1.02084
0.980844
1.12426
1.02615
1.00079
0.992746
0.992194
0.997109
1.00507
1.00086
1.00595
0.996607
1.00249
1.00049
1.00262
1.00155
1.00584
1.00336
0.997937
0.991205
0.986977
0.999712
1.00055
0.988288
0.984909
0.980291
0.984246
1.16123
1.08286
0.984585
1.00444
1.00355
1.00326
1.00488
0.99823
1.00152
1.00268
1.00157
0.999742
0.999295
1.00371
1.00536
1.00373
1.0032
0.995085
0.995497
1.00363
1.00621
0.996361
0.996371
0.996326
0.996346
0.996438
0.99647
0.995684
0.995834
0.994618
0.994316
1.03269
1.03022
1.06046
1.02553
1.03798
1.03528
0.982169
0.982999
0.991814
0.993565
0.991622
0.993379
0.995484
0.995236
0.989501
0.989532
0.990818
0.990861
0.996742
0.996904
1.00474
1.0047
1.00284
1.00409
1.00393
1.004
1.00268
1.00274
1.004
1.00402
1.00335
1.00141
1.00406
1.00404
1.00421
1.00423
1.00398
1.00396
1.01959
1.0204
0.995733
0.995741
0.996816
0.996807
0.99642
0.995918
0.99648
0.995985
0.996211
0.994926
0.984532
0.984147
0.994157
0.998074
0.994383
0.99602
0.989824
0.99143
1.00394
1.00469
0.999393
0.997369
1.00447
1.00341
1.0044
1.00471
1.00409
1.00392
1.00446
1.00476
1.00394
1.00375
0.991241
0.991364
0.996911
0.997039
0.991699
0.991984
0.999169
0.99601
0.995118
0.995042
0.991657
0.991503
0.996748
0.996814
1.00305
1.00312
1.00398
1.00381
1.00423
1.00421
0.996622
0.996684
1.00486
1.00487
1.00437
1.00436
1.00486
1.00471
0.996428
0.996441
0.99312
0.992927
0.989819
0.993221
0.988814
0.988554
0.992495
0.994298
1.00297
1.00296
1.00261
1.00259
1.00431
1.00466
0.996603
0.996603
0.994405
0.995456
0.993898
0.994022
1.0354
1.0355
0.988351
0.988365
0.994323
0.994262
0.994547
0.994734
0.995656
0.995827
0.997069
0.99713
0.994245
0.99425
0.9951
0.995095
0.996502
0.996652
0.995328
0.995475
0.996088
0.995704
0.998897
0.998901
0.994737
0.994746
1.0016
0.998752
1.00431
1.00228
1.00074
1.00051
0.999358
1.00211
0.9952
0.995182
0.996813
0.996821
0.994701
0.994944
1.00186
0.999196
0.996211
0.995055
0.997667
1.0005
0.995652
0.99564
1.00118
0.993575
0.997941
0.993027
0.99694
0.996037
0.995243
1.05073
1.04289
0.996098
0.996832
1.05716
1.07443
0.995606
0.978588
1.0087
1.01506
1.03651
1.05152
1.05101
1.01996
1.03082
1.00512
1.04368
1.08389
0.994171
0.994758
0.985719
0.988711
0.996037
0.986526
0.986221
0.987558
1.01672
1.01712
1.00579
1.01974
0.990681
0.983417
0.994986
1.00051
0.979112
1.0433
0.987203
1.0013
1.0019
1.11056
0.99922
0.997741
0.992452
0.997892
0.995934
0.994219
0.994237
1.00005
0.992174
0.995511
1.00195
1.00441
1.06943
1.09492
1.09357
1.05142
1.21487
1.1612
1.29257
1.00169
1.00329
0.994769
0.996199
0.987816
0.987317
0.990036
0.985545
1.00281
1.00285
1.00176
1.00393
1.0274
1.03125
0.989665
0.985946
0.995109
0.995088
1.00256
1.00255
0.998036
0.998136
0.993606
0.993658
0.994465
0.994536
0.986228
0.984555
0.990788
0.990709
1.00175
1.00176
0.984887
0.989692
0.995094
0.993923
0.999503
1.00371
0.987057
0.986887
0.994238
0.994148
1.00794
1.00364
1.01132
1.01422
0.995346
0.994623
0.996677
0.999349
1.01147
1.01441
1.01176
1.01468
0.993165
0.994628
1.00072
1.00133
0.996273
0.998373
0.988564
0.986704
0.988535
0.986674
0.991566
0.995949
0.995934
1.00268
1.00277
0.994956
0.995052
0.996277
0.995917
0.996325
0.996316
1.00431
1.00432
0.993529
0.993526
0.992111
0.992663
0.992276
0.992903
0.992022
0.993547
1.00698
1.00434
1.05251
1.08674
0.978983
0.96943
0.999762
0.99977
1.0067
1.00712
0.991932
0.992017
1.00208
1.00283
0.995237
0.994766
1.00601
1.00572
0.968011
0.968206
0.968249
0.968076
1.03232
1.03166
0.999849
0.9976
0.992757
0.994777
0.970439
0.971248
1.14797
1.17558
1.18174
0.991004
0.985053
0.99603
0.996368
0.997112
0.997044
1.00588
1.00615
1.00019
1.00338
0.993189
0.990848
0.99207
0.991733
1.01352
1.18528
1.21124
1.14096
1.12107
1.1306
1.16905
1.00115
0.993863
1.01806
1.01823
1.02965
1.00665
1.00263
0.996372
0.989082
0.992524
0.992742
0.99188
0.997768
1.00297
1.00085
1.00607
1.00269
0.999937
0.988204
0.98322
1.0001
0.998708
0.999156
1.03178
1.00426
1.00386
1.00051
1.00034
0.993918
0.993467
1.00481
1.00482
0.992732
0.992785
1.00311
1.00254
0.994722
0.994959
1.04666
1.04837
0.994093
0.994708
0.995773
0.995757
0.996378
1.00351
1.00429
0.995273
0.996349
0.99412
0.994093
0.995032
0.995013
0.995259
0.99397
0.996609
0.995534
0.994175
0.994433
0.995131
0.994199
1.06038
1.05996
0.995155
0.994387
0.997711
0.997618
0.991911
0.993657
0.99007
0.990035
0.990174
0.99176
0.991917
0.988629
0.988655
0.990795
0.990762
1.00041
0.997634
0.995287
0.99546
1.00421
1.00411
1.00491
1.00492
1.00407
1.00402
1.00376
1.00373
1.00264
1.00063
1.00114
1.00128
1.00479
1.0048
1.00443
1.0044
1.00392
1.00391
1.0034
1.00344
1.00448
1.00445
1.00399
1.01673
1.01636
1.00434
1.00383
0.992466
0.992483
0.996664
0.995816
0.996229
0.996417
0.995906
0.99646
0.995966
0.994746
0.994065
0.991827
0.99873
0.992965
0.994863
0.995702
0.999778
0.99077
0.990929
0.988668
0.988669
0.991149
0.989592
0.991336
0.989746
1.00388
1.00364
0.9993
0.997282
1.0045
1.00349
1.00438
1.0047
1.00371
1.00482
1.00483
1.00414
1.00413
0.99277
0.992697
0.992586
0.992735
0.988544
0.988531
0.988899
0.9888
0.996116
0.999202
0.989342
0.98935
0.993471
0.993563
0.996883
0.996954
1.00422
1.00299
1.00477
1.00476
1.0048
1.00425
1.00424
0.996314
0.996377
0.99868
0.996561
1.00487
1.00486
1.00472
1.00473
0.99494
0.993993
0.989776
0.989548
0.998497
0.998576
0.988606
0.988609
0.988654
0.990271
0.98852
0.989124
1.00395
1.00396
1.00067
1.00067
1.00458
1.00458
0.993545
0.99563
1.00394
1.00393
0.99276
0.991947
0.994205
0.99608
0.996071
0.996351
0.996368
0.994385
0.995407
0.993015
0.993063
0.988411
0.988617
0.994272
0.994263
1.01989
1.01987
0.988679
0.988639
0.994617
0.988721
0.99615
0.996146
0.995105
0.995122
0.993775
0.992943
0.993709
0.993858
0.996055
0.996215
0.996059
0.996208
0.996181
0.992803
1.00386
1.00386
0.994801
0.995204
1.00379
1.00366
1.00185
0.999848
1.00005
0.995021
0.995008
0.999365
1.0021
0.994972
0.994962
0.995245
0.995244
0.993381
0.993307
0.996529
0.995143
0.997744
1.00077
1.00307
1.00447
1.00244
0.999426
1.00013
1.00096
1.00219
0.996334
0.997613
0.992847
1.05337
1.05206
0.988897
0.996817
0.999973
1.03751
1.06288
0.99641
0.993032
0.989617
1.00317
1.00909
0.981139
1.01427
1.00016
0.890482
1.04213
1.02439
1.04524
1.05509
0.96929
0.994682
0.994365
1.01287
1.01525
0.994333
0.995287
1.00452
1.00731
0.998362
0.997609
0.990763
0.991917
0.984848
0.98459
1.00357
1.00465
1.00967
1.00971
1.01645
1.00564
1.01937
1.01318
1.00657
0.990099
0.990422
0.991636
1.00082
0.996718
1.01108
1.00344
1.0101
1.00027
0.986899
0.975571
0.980066
1.17555
1.05903
0.995936
0.995284
0.990319
1.00036
0.999321
0.997627
0.996488
1.00095
1.02675
0.994579
0.995339
1.00449
1.02242
1.06194
1.09829
1.11624
1.12474
1.27742
0.981847
0.973206
0.980208
0.985964
1.03218
1.03505
0.980636
0.99159
0.985756
1.00268
1.00158
0.994072
0.989705
1.00277
1.00311
1.0031
1.0562
1.05518
0.986401
0.990268
0.990979
0.991064
0.988422
0.994218
1.00255
1.00206
1.00387
1.00387
0.992294
0.9922
0.99581
0.9958
0.994131
0.994226
0.987659
0.987551
1.00566
1.00571
0.996442
0.996529
0.994426
0.994432
1.00173
1.00172
1.00259
1.00258
0.990604
1.01153
1.03077
0.993725
0.994978
1.00799
1.0113
1.01417
1.03593
1.03118
0.994323
1.00794
1.00362
0.999342
0.996663
1.00805
1.00368
0.993104
0.992388
1.01204
1.01494
0.996693
0.999708
0.99233
0.992304
1.03255
1.01978
1.00192
1.00298
0.998585
0.996478
0.991679
0.991721
0.99161
0.991653
0.994197
0.994242
1.00227
1.00227
0.995046
0.995135
0.998322
0.997748
0.994213
0.996878
0.995939
0.996314
0.996155
0.996163
0.99629
0.996284
1.00378
1.00376
0.995053
0.995046
0.992059
0.992576
0.992226
0.992809
0.993972
0.992248
1.00016
0.996304
1.00447
0.991112
1.05869
1.08286
1.04303
1.09314
1.03638
1.09775
1.00272
1.00202
0.996588
0.996645
0.995064
0.995162
0.992425
0.992158
0.991703
0.991686
1.00539
1.00589
0.997391
0.99794
1.00699
1.00679
1.00262
1.00316
0.978113
0.978559
0.97356
0.974451
1.03099
1.03076
0.999553
1.00217
1.00604
1.00666
0.982021
0.980065
0.960806
1.23771
1.18288
1.20242
0.990616
0.99234
0.994728
0.995041
0.997363
0.996415
0.995824
0.99647
0.986659
0.995979
0.998815
1.00152
1.00043
1.00604
1.00901
1.00463
0.998953
0.990109
0.997672
1.02038
1.26744
1.16578
1.23426
1.06823
1.09367
1.22559
0.968635
1.00611
0.989997
0.990621
1.00142
1.00361
0.992837
1.00296
0.997092
0.982978
0.980083
0.99928
0.998333
0.992186
0.991651
1.00331
1.00331
0.992534
0.992601
1.00327
1.00377
0.995103
0.995518
1.0043
1.00424
1.04224
1.04888
0.998815
1.00122
0.985785
1.04474
1.05134
0.996125
0.996118
1.00004
1.00012
0.998027
0.997976
0.995348
0.996362
0.994152
0.996878
0.99688
0.996615
0.996652
0.995274
0.994057
0.99422
0.995689
0.9966
1.02565
1.02353
1.03846
1.05757
1.02788
1.0067
0.993472
0.99589
0.997683
0.998095
0.997256
0.999342
0.990153
0.990237
0.989902
0.989422
0.989534
0.988512
0.988497
0.989476
0.988609
0.993747
0.994058
0.992385
0.990788
0.996202
0.995796
0.994636
1.0048
1.00481
1.00513
1.00496
1.00382
1.00452
1.00467
1.00394
1.00394
1.00477
1.00478
1.00323
1.00311
1.00473
1.00475
1.00434
1.0043
1.00393
1.00379
1.00378
1.00419
1.00451
0.995635
0.995609
0.99427
0.993919
1.03736
1.03672
0.995724
0.995712
0.996452
0.996477
0.994237
0.994201
0.996438
0.995899
0.996812
0.996802
0.996585
0.996093
0.99411
0.994822
0.994048
0.994069
0.993003
1.02478
0.992495
0.995133
1.05413
1.04379
1.00514
0.982984
0.994081
0.99566
0.988717
0.988631
0.994383
0.998258
0.997674
0.993711
0.994459
0.996117
0.991059
0.98952
1.00229
1.0024
1.00387
1.00362
1.00435
1.0032
0.99776
0.999801
1.00176
1.00186
1.00484
1.00484
1.00474
1.00443
0.994683
0.994624
0.990897
0.990825
0.997147
0.998738
0.998987
0.999063
0.989303
0.988483
0.988689
0.988828
0.996171
0.999221
0.99201
0.989314
1.00294
1.00299
0.998966
0.998908
1.00121
1.0013
1.00478
1.0048
1.00422
1.0042
1.00477
1.0048
1.00294
1.00297
0.99851
0.998452
1.0047
1.00471
0.995665
0.995666
0.992094
0.993705
0.99569
0.997447
0.997451
0.998659
0.997242
0.991887
0.993945
0.989839
0.988973
0.98854
0.993477
0.993504
0.991608
0.991624
1.00067
1.00396
1.00396
1.00426
1.00396
0.988054
0.988058
1.00396
1.00395
1.00395
1.00395
0.999939
0.999965
1.00453
1.0042
0.996121
0.996217
0.995389
0.995382
0.9966
0.996597
0.994172
0.994168
0.994301
0.994587
1.02166
1.02166
1.03356
1.03369
0.98859
0.98853
0.995625
0.995668
0.995707
0.995411
0.995416
0.996586
0.996586
0.993776
0.993775
0.992848
0.993005
0.996122
0.996131
0.99541
0.995407
1.04014
1.04111
1.00156
0.996088
0.99571
0.999694
0.999699
0.995138
0.99513
1.00083
1.00077
1.00367
1.00384
0.999842
1.00185
1.00457
1.00455
0.995052
0.995038
1.00205
0.999348
1.00403
1.00458
0.996774
0.996721
0.994702
0.994705
0.993132
0.993105
1.00315
0.997851
1.00227
0.999279
0.995092
0.996413
1.00113
0.998373
0.997696
1.00049
0.994889
0.994869
0.994869
0.99486
1.00033
1.00023
1.00127
0.998286
1.00263
0.999527
0.996341
1.00219
0.993547
0.994818
1.00079
0.995936
0.996543
0.998595
0.994979
0.994629
0.993341
0.992995
1.04388
1.04599
0.99546
0.994452
0.994158
0.996603
1.00692
1.01075
1.01563
0.989752
0.990086
1.01418
0.995767
0.996149
0.995998
1.01305
1.01554
0.996609
0.996302
0.98747
0.985244
1.0114
1.01705
0.989611
0.989151
0.985556
0.996416
0.984272
0.985231
1.00881
1.00858
1.00539
1.00556
1.00971
1.00535
0.983511
0.98938
1.00556
1.01882
1.01088
1.00902
1.00551
0.982917
0.989856
0.996801
0.997031
0.990068
0.98392
1.00489
0.98668
1.00002
0.989173
1.0026
1.00063
1.03643
1.07444
1.0631
1.03193
0.994182
0.994534
0.996963
0.997044