/*--------------------------------*- C++ -*----------------------------------*\
  =========                 |
  \\      /  F ield         | OpenFOAM: The Open Source CFD Toolbox
   \\    /   O peration     | Website:  https://openfoam.org
    \\  /    A nd           | Version:  7
     \\/     M anipulation  |
\*---------------------------------------------------------------------------*/
FoamFile
{
    version     2.0;
    format      ascii;
    class       volScalarField;
    location    "1860";
    object      T;
}
// * * * * * * * * * * * * * * * * * * * * * * * * * * * * * * * * * * * * * //

dimensions      [0 0 0 1 0 0 0];

internalField   nonuniform List<scalar> 
238806
(
0.0017477
0.00177816
0.00236679
0.002425
0.00231707
0.00192686
0.00191927
0.00174938
0.00172179
0.00245217
0.00248996
0.00222833
0.00321487
0.00326528
0.00348544
0.00330778
0.00252264
0.00257381
0.00156413
0.00156069
0.00294943
0.00304457
0.00331871
0.00336265
0.00347548
0.0024433
0.00250935
0.00252976
0.00266367
0.00263687
0.00157052
0.00155941
0.00294198
0.0028133
0.00258504
0.00249154
0.214577
0.215358
0.00238941
0.0023411
0.00241256
0.0025352
0.00168818
0.00167859
0.00157267
0.00157698
0.00356509
0.00338313
0.00269099
0.00257542
0.00210235
0.00207306
0.00309676
0.00314737
0.0787307
0.0782467
0.00241113
0.00235193
0.00235205
0.00224465
0.00229145
0.00232726
0.00229985
0.00232071
0.00225881
0.00158245
0.00158557
0.00169689
0.00171968
0.00187839
0.00191714
0.00295548
0.00309018
0.00264362
0.00275795
0.0022687
0.00231771
0.00259198
0.0024989
0.0247355
0.0246592
0.00243097
0.00232858
0.00182007
0.00180575
0.00210953
0.00216031
0.00272264
0.00266122
0.00260156
0.00265608
0.00218363
0.00223627
0.00172405
0.00173504
0.00229335
0.00223417
0.00230212
0.0023938
0.00249787
0.00159092
0.00168526
0.00170109
0.00172211
0.0017148
0.00395116
0.00408599
0.00279351
0.00290854
0.00288157
0.00301388
0.00231208
0.00225145
0.00213435
0.00216361
0.00317539
0.00305736
0.223793
0.223557
0.224357
0.00321947
0.00338004
0.00185833
0.00187547
0.00189679
0.00188965
0.00364892
0.00367235
0.00284534
0.00281273
0.0022898
0.00266926
0.00272768
0.00266811
0.00218793
0.0021296
0.00172834
0.00171474
0.00314277
0.00324383
0.00319455
0.00313566
0.00221436
0.00164145
0.00165702
0.00164371
0.00165713
0.0017266
0.00170938
0.00181752
0.00184453
0.00198458
0.00201627
0.00388621
0.00404103
0.00305399
0.00317058
0.0030343
0.00317058
0.00305028
0.00314589
0.00233961
0.0023889
0.00206798
0.00209158
0.00260559
0.00251092
0.0207524
0.0208175
0.214043
0.214821
0.00250558
0.0024062
0.00705659
0.00712063
0.00711558
0.001831
0.00184675
0.0022093
0.00223901
0.0038767
0.00387817
0.00280319
0.00264558
0.00257636
0.00259502
0.00181318
0.00182171
0.00171065
0.00169891
0.00169095
0.00168107
0.00183065
0.00185001
0.00234694
0.00227233
0.00225816
0.00280597
0.00279163
0.00233778
0.00237003
0.0015779
0.00157009
0.00165438
0.00167428
0.00167423
0.00169427
0.00200717
0.00206247
0.00188192
0.00185377
0.00544497
0.00538612
0.00431018
0.00447701
0.00364951
0.00349145
0.00322162
0.00307747
0.00283067
0.00271626
0.00231043
0.00237592
0.00219434
0.00214348
0.00215146
0.00212874
0.00258943
0.00249535
0.0127966
0.0123622
0.0442202
0.0428904
0.0420625
0.040778
0.110323
0.113342
0.00174603
0.00170078
0.00194667
0.00186747
0.00372483
0.00388762
0.00859973
0.00880675
0.00188777
0.00190518
0.00213124
0.00210464
0.00222248
0.00227967
0.00256501
0.00263512
0.0032667
0.00322959
0.00246358
0.00239561
0.00173013
0.00171734
0.00172019
0.00170777
0.00171417
0.00170189
0.00250341
0.00249607
0.00186526
0.00184056
0.00235597
0.00239028
0.00300937
0.00314471
0.00216628
0.00285162
0.00201807
0.00206058
0.00198184
0.00158377
0.00159273
0.00160933
0.00162091
0.00167806
0.00166348
0.00179455
0.00175861
0.00177541
0.00177349
0.00185682
0.00187161
0.0044501
0.00454719
0.00391226
0.00382238
0.00442138
0.00458592
0.00400305
0.00417654
0.0033172
0.00347413
0.00315502
0.00330631
0.00311769
0.00325488
0.00321232
0.00327344
0.00252291
0.00261344
0.00227132
0.0023004
0.00220336
0.00225269
0.00314672
0.00312901
0.00270462
0.00268816
0.00272684
0.00282453
0.0194853
0.0188953
0.0151544
0.0146502
0.0224772
0.0232073
0.0254574
0.0255332
0.0484114
0.0482276
0.113457
0.110418
0.225007
0.00258199
0.00248855
0.00339383
0.00324211
0.0710865
0.0732896
0.00441663
0.00427843
0.0071862
0.0072995
0.00192593
0.00195935
0.00187076
0.00186367
0.00218353
0.00215526
0.00233332
0.00240421
0.00293263
0.00291981
0.00296884
0.00301923
0.00194195
0.0018946
0.00173583
0.0017251
0.00175862
0.00177145
0.00177041
0.00169876
0.00171064
0.00236414
0.00235663
0.00202974
0.00198513
0.00188361
0.00185869
0.00253792
0.00263085
0.00337003
0.0019694
0.00202612
0.00253526
0.00243025
0.00227355
0.00220933
0.0022173
0.00226818
0.00173744
0.00176467
0.00159549
0.00158685
0.0016108
0.00161561
0.00161902
0.00163533
0.00163584
0.00165381
0.00231885
0.00225092
0.00212175
0.00206513
0.00174462
0.00175372
0.00172305
0.00173585
0.00184787
0.0018489
0.00189357
0.00192302
0.002057
0.00211005
0.0052145
0.00527849
0.00370391
0.00358742
0.00453722
0.00469947
0.0041014
0.00427281
0.00372804
0.00390493
0.00347026
0.00364538
0.00320563
0.00334338
0.00315515
0.00309933
0.00259813
0.00268999
0.00222943
0.00220029
0.00249084
0.00240435
0.00279304
0.00269012
0.00280813
0.00279153
0.00263434
0.0167444
0.0162557
0.012815
0.0123821
0.016183
0.0167327
0.0180055
0.0174037
0.042884
0.0442231
0.0387621
0.0377431
0.0454986
0.0468429
0.168088
0.167759
0.0542871
0.0527831
0.0021063
0.0020626
0.00212371
0.00351259
0.00357615
0.00351964
0.00360629
0.00356199
0.00350676
0.0764278
0.0759565
0.00630271
0.00646923
0.00693512
0.00703633
0.00719169
0.00719755
0.00451983
0.00449716
0.00187847
0.001858
0.00192291
0.00194578
0.00204132
0.00203321
0.00216778
0.00249319
0.00248415
0.00256316
0.00305269
0.0031851
0.00317538
0.00313749
0.00176599
0.00177547
0.00175681
0.00173838
0.00174975
0.00173467
0.00174377
0.00169576
0.00168545
0.00266081
0.00265346
0.00238131
0.0024488
0.0022422
0.00230111
0.00186243
0.00188927
0.00242592
0.00234234
0.00273622
0.00265772
0.0027115
0.00329248
0.00292924
0.00291766
0.00296961
0.00302189
0.0027229
0.00227417
0.00183438
0.00179837
0.00166446
0.00168576
0.00159881
0.00160926
0.00162302
0.00160608
0.00158045
0.00159054
0.00163827
0.00162576
0.00218794
0.00225147
0.00195919
0.0020131
0.00184606
0.00180646
0.00181034
0.00180886
0.0017542
0.00177863
0.00193789
0.00193778
0.00191441
0.00189922
0.00206834
0.00203604
0.00574613
0.00566104
0.0046073
0.00441902
0.00336926
0.00325228
0.00396586
0.00383023
0.0042624
0.00411021
0.00393718
0.00378117
0.00420354
0.00437273
0.00381706
0.00399349
0.00355538
0.0037306
0.00307853
0.00296233
0.00329795
0.00343586
0.00284012
0.00281091
0.00296556
0.00289185
0.00267823
0.00277112
0.00247239
0.00238473
0.00251719
0.0025462
0.00211305
0.00210517
0.00234354
0.00240288
0.00246799
0.00254751
0.00268341
0.00278654
0.00292714
0.00303467
0.0259124
0.0266971
0.0188908
0.0194794
0.0151614
0.0146551
0.0214519
0.0215179
0.0232552
0.022521
0.0281764
0.0290403
0.0407316
0.0408688
0.038175
0.0381146
0.047019
0.0456641
0.17872
0.182374
0.216502
0.217304
0.0781266
0.0779518
0.11711
0.116973
0.00244075
0.0025587
0.00175261
0.00176668
0.00381832
0.00388931
0.00261555
0.0027353
0.00275436
0.00261367
0.00344438
0.00329378
0.0685948
0.0681824
0.183206
0.183951
0.00982795
0.0098933
0.00811312
0.0083041
0.00813463
0.00798731
0.00726261
0.0073426
0.00728886
0.00710299
0.00195931
0.00199329
0.00186671
0.00183775
0.00181193
0.00179023
0.0019394
0.00190735
0.00199908
0.00199092
0.00221454
0.00215969
0.00234254
0.00241584
0.0041003
0.00408643
0.00276519
0.00283789
0.00281717
0.00299778
0.00319672
0.00205534
0.0020656
0.00179541
0.00181099
0.0017482
0.00176122
0.00175259
0.00176188
0.00170239
0.00169135
0.00274645
0.00273905
0.00228541
0.00234469
0.00243153
0.00242413
0.0019174
0.00189095
0.00183646
0.00181299
0.00267837
0.00277252
0.00275465
0.00243905
0.00244494
0.00249652
0.00214653
0.00209149
0.00206561
0.00208107
0.00213428
0.00249055
0.00259993
0.00314821
0.00214168
0.0017661
0.00179678
0.00160328
0.00161385
0.00159974
0.00159575
0.00160332
0.00161759
0.0021411
0.00214434
0.00220165
0.00212356
0.00218379
0.00186765
0.00182952
0.00178834
0.00182616
0.00177007
0.00173598
0.00176511
0.00175166
0.00180964
0.00184498
0.00201234
0.00199664
0.00189132
0.00189075
0.0019603
0.00200702
0.00472516
0.00463167
0.00517656
0.00525657
0.00528763
0.00524884
0.00448614
0.0043993
0.00353275
0.00339498
0.00347586
0.00335893
0.00385053
0.00371419
0.00422928
0.00438006
0.00383738
0.00368041
0.00390836
0.00408363
0.00364104
0.00381737
0.00299113
0.0028755
0.00304194
0.00298848
0.00315642
0.00325238
0.00244826
0.00251783
0.00245214
0.00254132
0.00241614
0.00246582
0.00224307
0.00225226
0.00234969
0.00228308
0.00230081
0.00244778
0.00235816
0.00289406
0.00290017
0.00267433
0.00258052
0.00298387
0.00287595
0.00434089
0.004211
0.0259298
0.0259492
0.0206838
0.0213274
0.0202868
0.0202081
0.0136814
0.0141511
0.0167454
0.0161931
0.0180425
0.0174371
0.0428889
0.0442387
0.0322014
0.0322666
0.0310393
0.0309636
0.0369178
0.0359156
0.0365754
0.0355667
0.0427551
0.0415599
0.042912
0.0441902
0.0966975
0.094121
0.171214
0.167399
0.189466
0.192894
0.21558
0.21637
0.218118
0.21895
0.0803431
0.0804486
0.223669
0.222636
0.223533
0.00266056
0.00262414
0.00174499
0.00178166
0.00182059
0.00165417
0.0016948
0.00157515
0.00154237
0.00354039
0.00360029
0.00289021
0.00280955
0.00279989
0.002686
0.0021849
0.00223212
0.00228118
0.00222801
0.00590413
0.00627359
0.0979655
0.100588
0.0750922
0.0746372
0.0937235
0.0931569
0.14734
0.146928
0.00773899
0.00749275
0.00598592
0.00614167
0.00788947
0.00808537
0.00850374
0.00871295
0.00767957
0.00781638
0.00718427
0.00718784
0.00724878
0.00702534
0.00710537
0.00217294
0.00212435
0.00189052
0.00191675
0.00184945
0.00183006
0.00184066
0.00190722
0.00189042
0.00187869
0.00202509
0.00199607
0.00217967
0.00218974
0.00210976
0.00206285
0.00249134
0.00241913
0.00389785
0.0038728
0.00265561
0.0027273
0.00291405
0.00274897
0.00211434
0.00213686
0.00178753
0.00177382
0.00178735
0.00179139
0.0017526
0.00176879
0.00170728
0.00172014
0.00257986
0.0025725
0.00240814
0.00247598
0.00211362
0.00205947
0.00191776
0.0019478
0.00181684
0.00179482
0.00255417
0.00246578
0.00247226
0.00338869
0.00350621
0.00332171
0.00269863
0.00275164
0.00293641
0.00300091
0.00304834
0.00320486
0.00210624
0.00202818
0.00243939
0.00235236
0.00162178
0.00160166
0.00163334
0.00164694
0.00162205
0.00163538
0.00160513
0.00159429
0.0019979
0.00201602
0.00207568
0.00191092
0.00186716
0.00177763
0.00181398
0.00171267
0.0017154
0.00181078
0.00178456
0.00198885
0.00198912
0.00196783
0.00193712
0.0055059
0.00559385
0.00558249
0.0055105
0.0050621
0.00510445
0.00419526
0.00428433
0.00373839
0.0032675
0.00315065
0.00370961
0.00382553
0.00414941
0.00399587
0.00358387
0.00374154
0.00338983
0.00323486
0.00273722
0.00270809
0.00338444
0.00348088
0.00299666
0.0030711
0.00269807
0.00277042
0.00244427
0.0023763
0.00249831
0.00254847
0.00242039
0.00240603
0.00205428
0.002045
0.00204449
0.00205223
0.0022431
0.00228396
0.00227327
0.00300579
0.00301099
0.00263383
0.00253908
0.00294445
0.00283632
0.0266664
0.0266822
0.0267134
0.0267323
0.0220241
0.0220348
0.0200847
0.0200919
0.0135207
0.0131059
0.0141534
0.0136827
0.0167599
0.0162047
0.0206926
0.0213902
0.0218058
0.021766
0.0290239
0.0290343
0.0331743
0.0332422
0.0283127
0.0282388
0.048606
0.0500221
0.0384454
0.0385577
0.0397297
0.040846
0.0356494
0.0346568
0.0364038
0.0353961
0.0478234
0.0492378
0.0424191
0.041193
0.0443441
0.0430528
0.05966
0.0598092
0.1716
0.171955
0.193331
0.189881
0.215089
0.215874
0.20306
0.199455
0.112391
0.115306
0.0805187
0.0782365
0.117381
0.117246
0.136293
0.136074
0.00195099
0.00189382
0.00188471
0.00247732
0.00259583
0.0019703
0.00203779
0.00193023
0.00183929
0.00829172
0.00865835
0.00174535
0.00179308
0.00397263
0.00404564
0.0036652
0.00373277
0.00254605
0.00267254
0.00244643
0.00251721
0.00247477
0.00243627
0.00492457
0.00469673
0.0066887
0.00665659
0.151631
0.154038
0.0657397
0.0653396
0.0768982
0.0773673
0.074181
0.0737228
0.164755
0.164297
0.130287
0.129586
0.00424387
0.00410604
0.0135035
0.0134496
0.00965227
0.00953029
0.00470586
0.00455174
0.00660763
0.00644323
0.00840244
0.0082139
0.00758649
0.00772569
0.00757563
0.00744495
0.00714481
0.00725999
0.00732931
0.00456434
0.00189788
0.00192925
0.00178805
0.00180921
0.00195796
0.00198432
0.00201446
0.00197505
0.00213676
0.00212751
0.00235436
0.00228738
0.00234236
0.00227413
0.00407169
0.00406918
0.0042165
0.0036423
0.00369784
0.00243905
0.00250441
0.00305619
0.00311251
0.00201412
0.00198132
0.00199266
0.00201542
0.00184318
0.00185497
0.00177958
0.00172373
0.00173766
0.00177268
0.00178208
0.00248441
0.00254815
0.002625
0.00259736
0.00231822
0.00225932
0.0019508
0.0019892
0.00219469
0.00216292
0.00212419
0.00238347
0.00231551
0.00259899
0.00250488
0.00295132
0.00284486
0.00286265
0.00245675
0.00239338
0.00248419
0.00258743
0.00263153
0.0028162
0.00287509
0.00310256
0.0032576
0.00219083
0.00174307
0.00174853
0.00165321
0.00164685
0.00162689
0.00161508
0.0016249
0.00162484
0.00191312
0.00189782
0.00204507
0.00208875
0.00191494
0.001872
0.0018277
0.00179241
0.00183266
0.00181826
0.00174384
0.00174148
0.00194574
0.00196123
0.0051721
0.0052672
0.00484103
0.0049174
0.00534842
0.00542412
0.00521756
0.0051884
0.00400208
0.00409048
0.00399785
0.00390744
0.00349667
0.00363412
0.0035874
0.00347061
0.00356045
0.00340259
0.00313985
0.00316649
0.00334265
0.00342042
0.00286534
0.00279229
0.00276347
0.00285729
0.00245872
0.0024297
0.00258602
0.00263662
0.00232185
0.00233405
0.00210575
0.00211526
0.00217984
0.00217137
0.00218252
0.0022241
0.0030118
0.00302895
0.00312197
0.00312553
0.00277284
0.00273286
0.0258961
0.0258786
0.0227125
0.0227241
0.0213666
0.020719
0.0166698
0.0161364
0.0195391
0.0194473
0.0128723
0.0127975
0.0132256
0.0132253
0.014635
0.0151345
0.0156581
0.0156504
0.0180871
0.0174786
0.0211899
0.0205046
0.0430582
0.0443356
0.0281711
0.0281614
0.0272643
0.0281231
0.0272347
0.0271677
0.0298843
0.0298096
0.0311164
0.043556
0.0422523
0.040975
0.039741
0.0382935
0.0396525
0.0407684
0.0357325
0.0347402
0.0345743
0.0344907
0.0369626
0.0368938
0.0380379
0.0392165
0.0468515
0.0455288
0.0425962
0.0413917
0.0444976
0.0431974
0.0582148
0.0565845
0.0513271
0.0512302
0.171215
0.174985
0.163487
0.167337
0.186356
0.185958
0.209476
0.211792
0.216051
0.216847
0.20835
0.211121
0.112288
0.115183
0.0749352
0.0748624
0.0960712
0.0961427
0.123895
0.12406
0.120221
0.12038
0.161549
0.161473
0.222429
0.222407
0.0020276
0.00195423
0.00233221
0.00237243
0.00191425
0.00196713
0.00213871
0.00220608
0.00182364
0.00184743
0.00190663
0.00294155
0.00289572
0.00148264
0.00146143
0.00381599
0.00395077
0.00388437
0.00345186
0.00339292
0.00280452
0.00293587
0.00213977
0.00214101
0.0021003
0.00207689
0.00235123
0.00233881
0.00261585
0.00607635
0.00597104
0.00630747
0.00593911
0.0968072
0.0962858
0.164213
0.164968
0.0887984
0.0891965
0.0714095
0.0710215
0.0792153
0.0796987
0.161806
0.161204
0.132811
0.133523
0.00514493
0.00496304
0.00461924
0.00446947
0.013042
0.0130904
0.0121044
0.0117775
0.0107733
0.0107396
0.00994625
0.0099862
0.00628414
0.00613008
0.00839992
0.00861137
0.00888321
0.00908103
0.00751699
0.0076581
0.00784548
0.00770874
0.00708131
0.006987
0.00202359
0.00206441
0.00199487
0.00203418
0.00181961
0.00179606
0.0018534
0.00183009
0.0020375
0.00206896
0.00208725
0.00207872
0.00222644
0.00216469
0.00227462
0.00221536
0.00340609
0.00341387
0.0035488
0.0025937
0.00262243
0.00252615
0.00258055
0.00289779
0.00296683
0.00202854
0.00207595
0.00180164
0.00182774
0.00174296
0.00172804
0.00279192
0.00276407
0.00252082
0.00254823
0.00179927
0.00178184
0.00197394
0.00194487
0.00188939
0.00191849
0.00274468
0.00286053
0.0028059
0.00246352
0.0025064
0.00231518
0.00225781
0.00262923
0.00258624
0.00253744
0.00238474
0.00301765
0.00300502
0.00545508
0.00541829
0.0023277
0.00225457
0.00251102
0.00264917
0.00254509
0.0030502
0.00312424
0.00317831
0.00291081
0.00296323
0.00171874
0.00169811
0.00170573
0.00171891
0.00163322
0.0016277
0.00157063
0.00156215
0.00156867
0.00166378
0.00166446
0.00162781
0.00163399
0.00186763
0.00185395
0.00203054
0.00198998
0.00201268
0.00196249
0.00183254
0.00187414
0.0017833
0.00179724
0.00499823
0.00509713
0.00568813
0.00583776
0.00499764
0.00508236
0.0046218
0.00469536
0.00469058
0.00484814
0.00484526
0.0047859
0.0041652
0.00423409
0.00406452
0.00409974
0.00360303
0.00373996
0.00305656
0.00302762
0.00329797
0.00322152
0.00326772
0.00336402
0.00268088
0.00260928
0.00285381
0.00294837
0.00237678
0.00234773
0.00232027
0.0023289
0.00217166
0.00218113
0.00212382
0.00216579
0.0028994
0.00291623
0.0119222
0.0119261
0.0234512
0.0234439
0.023919
0.0246618
0.0206646
0.0213066
0.018884
0.0194702
0.0161142
0.0166681
0.0240363
0.024115
0.0166801
0.0172537
0.0138173
0.0138564
0.0152599
0.0146929
0.0141583
0.0136876
0.016796
0.0162334
0.0151401
0.0146389
0.015667
0.0181416
0.017531
0.0187116
0.0172999
0.0178846
0.0204001
0.0210738
0.0494578
0.0509146
0.0469532
0.0455746
0.0357637
0.0357723
0.0298141
0.029779
0.0251125
0.0250399
0.025609
0.0248124
0.0314364
0.0315178
0.0289786
0.0289056
0.0327441
0.0326694
0.0446891
0.046019
0.0396243
0.0394633
0.0349159
0.0348258
0.0376753
0.0387148
0.0354827
0.0364919
0.0337495
0.0336769
0.039308
0.0393916
0.0454083
0.0467305
0.0436795
0.0438427
0.0404253
0.0416573
0.048587
0.0471874
0.0812916
0.0836227
0.0531241
0.0516377
0.0543752
0.0544627
0.0514078
0.104697
0.107473
0.196508
0.192684
0.170367
0.166592
0.194587
0.191133
0.194076
0.190599
0.200769
0.197479
0.21226
0.209926
0.215074
0.214635
0.211824
0.209003
0.21774
0.218565
0.0542987
0.0527856
0.0953352
0.0954373
0.107815
0.107928
0.101654
0.104477
0.126915
0.127132
0.120533
0.120682
0.153997
0.153796
0.197324
0.197273
0.224435
0.224956
0.00451383
0.00447164
0.00250415
0.002405
0.00245875
0.00223733
0.00227897
0.00215949
0.00219242
0.00222385
0.00202186
0.00170209
0.00384254
0.00395013
0.0022513
0.00231984
0.00150551
0.00149667
0.00184336
0.00179399
0.00374659
0.00368516
0.00265908
0.00257278
0.00305294
0.00292257
0.00210823
0.00217288
0.00209215
0.0022196
0.002176
0.0021596
0.00222905
0.00299885
0.00288365
0.00287174
0.00824826
0.00827557
0.00508434
0.00485818
0.0128432
0.01236
0.0591303
0.0591626
0.122857
0.119726
0.163506
0.164257
0.0941305
0.0916368
0.0564902
0.056748
0.0732135
0.073613
0.0719886
0.0715447
0.085975
0.0854499
0.101717
0.101135
0.182179
0.182934
0.143289
0.142529
0.191918
0.194496
0.00417112
0.00403459
0.00432579
0.00418718
0.00976047
0.0100599
0.0110198
0.0113957
0.0110267
0.0111892
0.0109646
0.00974168
0.00969844
0.00530337
0.00548272
0.00717744
0.00734574
0.00828969
0.00850314
0.00876363
0.00896601
0.00878917
0.00861487
0.00680948
0.00693323
0.00764093
0.0077787
0.00744468
0.00757046
0.00469562
0.00469032
0.00197837
0.00201969
0.00203208
0.00207816
0.00183565
0.00184528
0.00180842
0.00178828
0.00208252
0.00211647
0.00196089
0.00195286
0.00221903
0.00227884
0.00431437
0.00429266
0.00341754
0.00268514
0.0017672
0.00175481
0.00267842
0.00270621
0.00176592
0.00197943
0.0020131
0.00192179
0.00195151
0.00229008
0.00225033
0.00234394
0.00226724
0.0022166
0.00221581
0.00273028
0.00288757
0.00286299
0.00354658
0.0041473
0.00411944
0.00226846
0.00219118
0.00259877
0.00254603
0.00288415
0.00276327
0.00332676
0.00179517
0.00183641
0.00191544
0.00172763
0.00171919
0.00171036
0.00173961
0.00168568
0.00170621
0.00159369
0.00159382
0.00156859
0.00157297
0.00168681
0.00168807
0.00165296
0.0016463
0.00192005
0.00188953
0.00196267
0.00194577
0.0019102
0.00195674
0.00426634
0.00435672
0.00464854
0.00475456
0.00520131
0.00536788
0.00553086
0.00510161
0.00503162
0.00515636
0.0053337
0.00515678
0.00497636
0.00451358
0.00436989
0.00456722
0.00429532
0.00273026
0.00267922
0.00294701
0.00291773
0.00350732
0.00360352
0.00259664
0.00252596
0.00240321
0.00241114
0.00221554
0.00219595
0.0131859
0.0135543
0.00858185
0.0086028
0.0378622
0.036773
0.0160064
0.0154833
0.0162283
0.0167268
0.0226772
0.022653
0.0188608
0.0194426
0.0207107
0.021357
0.0200742
0.0144695
0.0140717
0.0226278
0.022545
0.0234411
0.0241927
0.0164669
0.0159793
0.0136109
0.013196
0.0132503
0.0133185
0.0132769
0.0133065
0.0127803
0.012346
0.0132307
0.0156771
0.0156882
0.0151469
0.0146443
0.018204
0.017593
0.0186242
0.0186644
0.0234139
0.0226681
0.0211097
0.0204321
0.0468958
0.0482582
0.0455782
0.0469539
0.036715
0.0377362
0.0357458
0.0257134
0.0257052
0.0321324
0.0331015
0.0279724
0.0280481
0.0265008
0.0265742
0.0263964
0.0263327
0.0285405
0.0284637
0.0299591
0.0290518
0.0317662
0.0316904
0.0328158
0.0490168
0.0476094
0.0421679
0.0434813
0.0358194
0.0368177
0.0409204
0.0398127
0.0366557
0.0367345
0.035055
0.034073
0.0358541
0.0357863
0.0370126
0.0479654
0.0493816
0.0428949
0.0417022
0.0439936
0.0417842
0.0405353
0.0489236
0.0475142
0.0458251
0.0527364
0.0527171
0.0532228
0.0517289
0.0529851
0.053044
0.0545109
0.0529308
0.0939175
0.096487
0.14579
0.146274
0.189005
0.187958
0.190957
0.1708
0.167009
0.171195
0.174992
0.18276
0.179096
0.187071
0.186729
0.201124
0.197794
0.212704
0.210347
0.214175
0.213693
0.198261
0.201894
0.211479
0.20868
0.215566
0.217631
0.0644663
0.0663086
0.0707206
0.0727687
0.0976785
0.0978011
0.0900506
0.0900994
0.0791808
0.0771002
0.098909
0.0988754
0.10758
0.107512
0.124887
0.121699
0.127333
0.127518
0.132936
0.132705
0.153588
0.153412
0.222587
0.222781
0.224409
0.224602
0.224877
0.00511393
0.00527469
0.00156392
0.00159516
0.00228341
0.00221957
0.00230669
0.00252573
0.00228048
0.00225962
0.00201432
0.00211589
0.0021837
0.00211538
0.00829147
0.00865456
0.00276638
0.00281229
0.00177337
0.00182476
0.00152965
0.00152689
0.00147596
0.00145697
0.00156412
0.00154563
0.0017429
0.00176502
0.00341948
0.00326168
0.00273484
0.00265399
0.00306664
0.00313035
0.00319047
0.00212983
0.00221693
0.00219315
0.00187916
0.0018165
0.00229051
0.00224754
0.00237938
0.00165649
0.0016143
0.00160611
0.00636459
0.00628206
0.00618373
0.00520453
0.00554782
0.0186238
0.0184868
0.0275501
0.0276116
0.0758215
0.0755331
0.124944
0.121751
0.123363
0.120225
0.162821
0.16357
0.14546
0.148563
0.0912301
0.0937153
0.0573276
0.0570006
0.0754583
0.0758694
0.0768884
0.0773267
0.0698514
0.0694211
0.0850431
0.0855544
0.0910848
0.0905311
0.159229
0.158418
0.179008
0.180829
0.185251
0.18599
0.137876
0.1372
0.144277
0.143708
0.168735
0.171883
0.202642
0.203455
0.00446441
0.00431394
0.00456012
0.00470935
0.00997219
0.0096704
0.0114685
0.0110951
0.00909782
0.00898315
0.0108132
0.0108947
0.00964254
0.00957486
0.00659927
0.00683818
0.00614839
0.00602221
0.00817436
0.00838983
0.00819796
0.00800446
0.0088294
0.00902943
0.00844792
0.00828809
0.00689368
0.00678585
0.00743359
0.00757695
0.00738154
0.00750857
0.00770207
0.00783862
0.00487757
0.00499843
0.00193282
0.00191953
0.00195675
0.00207143
0.00211556
0.00186172
0.00187397
0.00205767
0.00437066
0.00466943
0.00457356
0.00179783
0.0017918
0.00178289
0.00202132
0.00207094
0.00259184
0.00252218
0.00208383
0.0021421
0.00216997
0.00242502
0.0030648
0.00432218
0.00431545
0.00349865
0.00366066
0.00369125
0.0023294
0.00240521
0.0028334
0.00278007
0.00192822
0.00196567
0.00199793
0.00177975
0.00179315
0.00167406
0.00164556
0.00169729
0.00168526
0.00171063
0.0017339
0.0016084
0.00160842
0.00158656
0.00158226
0.00169725
0.00168982
0.00164321
0.00164349
0.00193751
0.00197152
0.00490433
0.00481505
0.00486533
0.0050332
0.00543351
0.00534215
0.00476762
0.00496613
0.00501395
0.00503793
0.00417804
0.00277761
0.00282918
0.00263915
0.00261008
0.00318182
0.00310652
0.00224351
0.00225349
0.00715733
0.00698824
0.00536171
0.00540485
0.0088945
0.00889775
0.0347077
0.0347202
0.0347415
0.0347536
0.015387
0.0149104
0.0189
0.0194907
0.0194017
0.01881
0.0146526
0.014249
0.0241513
0.0241655
0.0220096
0.0226966
0.020061
0.0200433
0.0206987
0.0213436
0.0145156
0.0141205
0.0219147
0.0218298
0.0233612
0.0232806
0.0191791
0.0185985
0.0138048
0.0133858
0.013707
0.0132902
0.0133774
0.0129455
0.0145948
0.0151679
0.0127203
0.0126425
0.0132406
0.0132558
0.0123484
0.0127813
0.0162181
0.0167765
0.0187671
0.0188298
0.0179474
0.0173529
0.0226164
0.0233585
0.0211482
0.0204668
0.0493737
0.0508295
0.0497142
0.0511707
0.0455911
0.0469607
0.0368312
0.0368495
0.03272
0.0327138
0.0265022
0.0265108
0.0279101
0.0287672
0.0268485
0.0269103
0.0271893
0.0271138
0.0249653
0.0248893
0.0243708
0.0243046
0.0323823
0.0324647
0.0302662
0.0303451
0.0300344
0.0301105
0.0281664
0.0280952
0.0328852
0.0329541
0.0308133
0.0307374
0.0432734
0.0420635
0.0475285
0.0489299
0.0420922
0.0434176
0.0352712
0.0351928
0.03752
0.0385716
0.0397853
0.0408998
0.0406704
0.0395574
0.0351327
0.0341504
0.0347849
0.0347152
0.0476714
0.0490839
0.043016
0.0418227
0.0448129
0.0435117
0.0419168
0.040649
0.0461446
0.0459856
0.0812228
0.0835606
0.0594507
0.0611441
0.0546295
0.0547413
0.0560867
0.0560429
0.0528633
0.0527706
0.104343
0.107112
0.152246
0.155865
0.205148
0.205967
0.180414
0.176478
0.175454
0.17584
0.178328
0.17458
0.176529
0.172776
0.175353
0.171526
0.183131
0.179469
0.190261
0.193728
0.213486
0.214264
0.213126
0.210745
0.202445
0.198781
0.212154
0.209317
0.218821
0.219669
0.21946
0.220323
0.0609843
0.061002
0.0663311
0.0644889
0.0728595
0.0708284
0.0979087
0.0980105
0.0828832
0.0828557
0.0790825
0.0770627
0.101756
0.101768
0.0989286
0.0962087
0.113685
0.110601
0.10744
0.107366
0.12372
0.123535
0.140416
0.139862
0.157568
0.157698
0.189374
0.185453
0.180919
0.180931
0.216024
0.216045
0.223377
0.00544191
0.00560299
0.00420254
0.0043757
0.00163542
0.00167454
0.00268836
0.00267222
0.0020661
0.0021514
0.00236682
0.00241084
0.00194851
0.00192623
0.00187813
0.00188978
0.00207455
0.00201742
0.00170012
0.00164487
0.00486919
0.00496431
0.00418698
0.0041015
0.00273337
0.0026542
0.00228149
0.00237265
0.00179034
0.00174114
0.00155274
0.00155538
0.0015591
0.00154522
0.00147295
0.00145621
0.00158174
0.00161188
0.00146972
0.00148325
0.00169502
0.00170552
0.00302883
0.00313128
0.00309213
0.00273285
0.00299388
0.00286224
0.00247651
0.00235656
0.00211144
0.0020524
0.00200544
0.00194871
0.00190894
0.00200076
0.00280584
0.00275266
0.00289819
0.00197443
0.00197078
0.0024652
0.00242724
0.00668123
0.00651794
0.00648528
0.00633482
0.00516294
0.00532488
0.00636665
0.00600187
0.00791638
0.00788949
0.0125034
0.0121462
0.00917081
0.00923525
0.07357
0.0713599
0.0693682
0.0672084
0.1024
0.0995756
0.103346
0.106261
0.154563
0.152151
0.162878
0.162175
0.151571
0.154447
0.0824459
0.080203
0.061222
0.0614605
0.0500869
0.0503722
0.0629399
0.0625725
0.0979501
0.0956258
0.0740069
0.071791
0.0702797
0.0707064
0.0677691
0.067353
0.0917579
0.0922913
0.0830796
0.0825839
0.0885024
0.0879622
0.11373
0.113086
0.152027
0.151314
0.181873
0.180072
0.130425
0.131058
0.134634
0.133945
0.141101
0.140459
0.14804
0.176664
0.179801
0.201781
0.202582
0.00438739
0.00453747
0.013392
0.0133307
0.0083503
0.00808828
0.0101025
0.00975471
0.0131127
0.0135108
0.00861919
0.00850089
0.00912139
0.00900321
0.0106162
0.0107206
0.0104333
0.0103725
0.01027
0.010256
0.00954378
0.00956522
0.00656523
0.00680643
0.00629896
0.00617963
0.00700446
0.00719546
0.0075849
0.00742204
0.00752025
0.00770123
0.00868675
0.00889141
0.00895308
0.00914678
0.00826193
0.00842333
0.0079805
0.00812821
0.00703651
0.00691507
0.00725123
0.00738138
0.00754788
0.00742144
0.00529116
0.00510036
0.00473613
0.0019916
0.00196037
0.00462592
0.00474039
0.00261498
0.00268541
0.00207932
0.00203407
0.00176666
0.00329924
0.00312883
0.00288476
0.00247489
0.00239422
0.00222689
0.0049391
0.00473828
0.00436168
0.00418882
0.00373686
0.0039534
0.00240606
0.00235264
0.00187896
0.00191953
0.00184462
0.00175835
0.00169347
0.00170351
0.00173948
0.00176535
0.00166746
0.00169037
0.00161676
0.00161112
0.00158059
0.00158117
0.00166688
0.00167395
0.00454192
0.00445506
0.00492563
0.004823
0.00490503
0.00484962
0.00288092
0.00293317
0.00685445
0.00702831
0.00397075
0.00383739
0.0066785
0.00642073
0.0116204
0.0112549
0.0115084
0.011514
0.0402814
0.0403241
0.0358575
0.0358825
0.0283328
0.0291848
0.0240563
0.0248198
0.0144489
0.0216077
0.0215882
0.0227406
0.0227334
0.0241876
0.0249418
0.0144993
0.0140896
0.0150616
0.0150025
0.01428
0.0142989
0.0249032
0.0249186
0.0234209
0.0234338
0.0194587
0.0188748
0.0176731
0.0182129
0.0142698
0.0138596
0.021221
0.0211337
0.0227099
0.0236692
0.0244147
0.018522
0.0191042
0.0139024
0.0134811
0.0150131
0.0145656
0.0142362
0.0143055
0.0134412
0.013022
0.0146022
0.015195
0.0129312
0.0125025
0.0141709
0.0137063
0.0127853
0.0123505
0.0229067
0.0229752
0.0201365
0.0194739
0.0199626
0.0193045
0.0198752
0.0192232
0.0179238
0.0173328
0.0191068
0.0197444
0.0212342
0.0205454
0.0218482
0.0438793
0.0425461
0.0496064
0.0510629
0.0496664
0.0511227
0.0398949
0.039662
0.0405711
0.0379345
0.0379635
0.0337093
0.0337066
0.0257138
0.0257176
0.0314294
0.0313745
0.0281273
0.0281469
0.0254268
0.0253715
0.0276185
0.0284759
0.0258322
0.0259033
0.0273384
0.0274111
0.0256846
0.0257591
0.0247838
0.024728
0.0333444
0.0334282
0.0293553
0.0294332
0.0291261
0.0292014
0.0280249
0.0330251
0.0320622
0.0318404
0.0308884
0.0484337
0.0498532
0.0474501
0.0488442
0.0446407
0.0459562
0.0387914
0.0397973
0.0362406
0.0363288
0.0370517
0.0360256
0.0386506
0.0376017
0.0384793
0.0374299
0.0360419
0.0361241
0.0379956
0.0387105
0.0378539
0.044973
0.0463016
0.0496418
0.0482221
0.04413
0.0442508
0.0422334
0.0409667
0.0473528
0.0487581
0.0559137
0.0559338
0.0591539
0.0607979
0.0549967
0.0534458
0.0576581
0.0587619
0.057432
0.0561714
0.0515548
0.0514815
0.0697624
0.0717791
0.0775528
0.0753299
0.1032
0.100512
0.111315
0.110996
0.149361
0.152829
0.19507
0.192616
0.19281
0.1728
0.168878
0.172272
0.168384
0.179315
0.179736
0.174122
0.17783
0.167589
0.1635
0.175731
0.1719
0.183487
0.179843
0.210774
0.208484
0.213188
0.212658
0.203596
0.200004
0.202758
0.199131
0.205558
0.205263
0.217346
0.218163
0.218478
0.219318
0.219149
0.220004
0.0528463
0.052853
0.0644418
0.0662827
0.0560481
0.0560047
0.0952329
0.0951259
0.0783709
0.078313
0.0828676
0.0861031
0.0885298
0.104671
0.10472
0.0962034
0.0988953
0.11051
0.113571
0.120964
0.11796